# ['Mg', 'O']

40 atoms
2 atom types

    0.0000     4.4944 xlo xhi
    0.0000     4.4944 ylo yhi
    0.0000    44.9444 zlo zhi

    0.0000     0.0000     0.0000 xy xz yz

Atoms

1 1     1.0000     2.2472     2.2472     0.0000
2 1     1.0000     2.2472     0.0000     2.2472
3 1     1.0000     0.0000     0.0000     0.0000
4 1     1.0000     0.0000     2.2472     2.2472
5 1     1.0000     2.2472     2.2472     4.4944
6 1     1.0000     2.2472     0.0000     6.7417
7 1     1.0000     0.0000     0.0000     4.4944
8 1     1.0000     0.0000     2.2472     6.7417
9 1     1.0000     2.2472     2.2472     8.9889
10 1     1.0000     2.2472     0.0000    11.2361
11 1     1.0000     0.0000     0.0000     8.9889
12 1     1.0000     0.0000     2.2472    11.2361
13 1     1.0000     2.2472     2.2472    13.4833
14 1     1.0000     2.2472     0.0000    15.7305
15 1     1.0000     0.0000     0.0000    13.4833
16 1     1.0000     0.0000     2.2472    15.7305
17 1     1.0000     2.2472     2.2472    17.9777
18 1     1.0000     2.2472     0.0000    20.2250
19 1     1.0000     0.0000     0.0000    17.9777
20 1     1.0000     0.0000     2.2472    20.2250
21 2     1.0000     0.0000     2.2472     0.0000
22 2     1.0000     2.2472     0.0000     0.0000
23 2     1.0000     2.2472     2.2472     2.2472
24 2     1.0000     0.0000     0.0000     2.2472
25 2     1.0000     0.0000     2.2472     4.4944
26 2     1.0000     2.2472     0.0000     4.4944
27 2     1.0000     2.2472     2.2472     6.7417
28 2     1.0000     0.0000     0.0000     6.7417
29 2     1.0000     0.0000     2.2472     8.9889
30 2     1.0000     2.2472     0.0000     8.9889
31 2     1.0000     2.2472     2.2472    11.2361
32 2     1.0000     0.0000     0.0000    11.2361
33 2     1.0000     0.0000     2.2472    13.4833
34 2     1.0000     2.2472     0.0000    13.4833
35 2     1.0000     2.2472     2.2472    15.7305
36 2     1.0000     0.0000     0.0000    15.7305
37 2     1.0000     0.0000     2.2472    17.9777
38 2     1.0000     2.2472     0.0000    17.9777
39 2     1.0000     2.2472     2.2472    20.2250
40 2     1.0000     0.0000     0.0000    20.2250
