# ['Mg', 'O']

214 atoms
2 atom types

    0.0000    12.5740 xlo xhi
    0.0000    12.5740 ylo yhi
    0.0000    12.5740 zlo zhi

    0.0000     0.0000     0.0000 xy xz yz

Atoms

1 1     1.0000     2.0957     2.0957     0.0000
2 1     1.0000     2.0957     0.0000     2.0957
3 1     1.0000     0.0000     0.0000     0.0000
4 1     1.0000     0.0000     2.0957     2.0957
5 1     1.0000     2.0957     2.0957     4.1913
6 1     1.0000     2.0957     0.0000     6.2870
7 1     1.0000     0.0000     0.0000     4.1913
8 1     1.0000     0.0000     2.0957     6.2870
9 1     1.0000     2.0957     2.0957     8.3826
10 1     1.0000     2.0957     0.0000    10.4783
11 1     1.0000     0.0000     0.0000     8.3826
12 1     1.0000     0.0000     2.0957    10.4783
13 1     1.0000     2.0957     6.2870     0.0000
14 1     1.0000     2.0957     4.1913     2.0957
15 1     1.0000     0.0000     4.1913     0.0000
16 1     1.0000     0.0000     6.2870     2.0957
17 1     1.0000     2.0957     6.2870     4.1913
18 1     1.0000     2.0957     4.1913     6.2870
19 1     1.0000     0.0000     4.1913     4.1913
20 1     1.0000     0.0000     6.2870     6.2870
21 1     1.0000     2.0957     6.2870     8.3826
22 1     1.0000     2.0957     4.1913    10.4783
23 1     1.0000     0.0000     4.1913     8.3826
24 1     1.0000     0.0000     6.2870    10.4783
25 1     1.0000     2.0957    10.4783     0.0000
26 1     1.0000     2.0957     8.3826     2.0957
27 1     1.0000     0.0000     8.3826     0.0000
28 1     1.0000     0.0000    10.4783     2.0957
29 1     1.0000     2.0957    10.4783     4.1913
30 1     1.0000     2.0957     8.3826     6.2870
31 1     1.0000     0.0000     8.3826     4.1913
32 1     1.0000     0.0000    10.4783     6.2870
33 1     1.0000     2.0957    10.4783     8.3826
34 1     1.0000     2.0957     8.3826    10.4783
35 1     1.0000     0.0000     8.3826     8.3826
36 1     1.0000     0.0000    10.4783    10.4783
37 1     1.0000     6.2870     2.0957     0.0000
38 1     1.0000     6.2870     0.0000     2.0957
39 1     1.0000     4.1913     0.0000     0.0000
40 1     1.0000     4.1913     2.0957     2.0957
41 1     1.0000     6.2870     2.0957     4.1913
42 1     1.0000     6.2870     0.0000     6.2870
43 1     1.0000     4.1913     0.0000     4.1913
44 1     1.0000     4.1913     2.0957     6.2870
45 1     1.0000     6.2870     2.0957     8.3826
46 1     1.0000     6.2870     0.0000    10.4783
47 1     1.0000     4.1913     0.0000     8.3826
48 1     1.0000     4.1913     2.0957    10.4783
49 1     1.0000     6.2870     6.2870     0.0000
50 1     1.0000     6.2870     4.1913     2.0957
51 1     1.0000     4.1913     4.1913     0.0000
52 1     1.0000     4.1913     6.2870     2.0957
53 1     1.0000     6.2870     6.2870     4.1913
54 1     1.0000     6.2870     4.1913     6.2870
55 1     1.0000     4.1913     6.2870     6.2870
56 1     1.0000     6.2870     6.2870     8.3826
57 1     1.0000     6.2870     4.1913    10.4783
58 1     1.0000     4.1913     4.1913     8.3826
59 1     1.0000     4.1913     6.2870    10.4783
60 1     1.0000     6.2870    10.4783     0.0000
61 1     1.0000     6.2870     8.3826     2.0957
62 1     1.0000     4.1913     8.3826     0.0000
63 1     1.0000     4.1913    10.4783     2.0957
64 1     1.0000     6.2870    10.4783     4.1913
65 1     1.0000     6.2870     8.3826     6.2870
66 1     1.0000     4.1913     8.3826     4.1913
67 1     1.0000     4.1913    10.4783     6.2870
68 1     1.0000     6.2870    10.4783     8.3826
69 1     1.0000     6.2870     8.3826    10.4783
70 1     1.0000     4.1913     8.3826     8.3826
71 1     1.0000     4.1913    10.4783    10.4783
72 1     1.0000    10.4783     2.0957     0.0000
73 1     1.0000    10.4783     0.0000     2.0957
74 1     1.0000     8.3826     0.0000     0.0000
75 1     1.0000     8.3826     2.0957     2.0957
76 1     1.0000    10.4783     2.0957     4.1913
77 1     1.0000    10.4783     0.0000     6.2870
78 1     1.0000     8.3826     0.0000     4.1913
79 1     1.0000     8.3826     2.0957     6.2870
80 1     1.0000    10.4783     2.0957     8.3826
81 1     1.0000    10.4783     0.0000    10.4783
82 1     1.0000     8.3826     0.0000     8.3826
83 1     1.0000     8.3826     2.0957    10.4783
84 1     1.0000    10.4783     6.2870     0.0000
85 1     1.0000    10.4783     4.1913     2.0957
86 1     1.0000     8.3826     4.1913     0.0000
87 1     1.0000     8.3826     6.2870     2.0957
88 1     1.0000    10.4783     6.2870     4.1913
89 1     1.0000    10.4783     4.1913     6.2870
90 1     1.0000     8.3826     4.1913     4.1913
91 1     1.0000     8.3826     6.2870     6.2870
92 1     1.0000    10.4783     6.2870     8.3826
93 1     1.0000    10.4783     4.1913    10.4783
94 1     1.0000     8.3826     4.1913     8.3826
95 1     1.0000     8.3826     6.2870    10.4783
96 1     1.0000    10.4783    10.4783     0.0000
97 1     1.0000    10.4783     8.3826     2.0957
98 1     1.0000     8.3826     8.3826     0.0000
99 1     1.0000     8.3826    10.4783     2.0957
100 1     1.0000    10.4783    10.4783     4.1913
101 1     1.0000    10.4783     8.3826     6.2870
102 1     1.0000     8.3826     8.3826     4.1913
103 1     1.0000     8.3826    10.4783     6.2870
104 1     1.0000    10.4783    10.4783     8.3826
105 1     1.0000    10.4783     8.3826    10.4783
106 1     1.0000     8.3826     8.3826     8.3826
107 1     1.0000     8.3826    10.4783    10.4783
108 2     1.0000     0.0000     2.0957     0.0000
109 2     1.0000     2.0957     0.0000     0.0000
110 2     1.0000     2.0957     2.0957     2.0957
111 2     1.0000     0.0000     0.0000     2.0957
112 2     1.0000     0.0000     2.0957     4.1913
113 2     1.0000     2.0957     0.0000     4.1913
114 2     1.0000     2.0957     2.0957     6.2870
115 2     1.0000     0.0000     0.0000     6.2870
116 2     1.0000     0.0000     2.0957     8.3826
117 2     1.0000     2.0957     0.0000     8.3826
118 2     1.0000     2.0957     2.0957    10.4783
119 2     1.0000     0.0000     0.0000    10.4783
120 2     1.0000     0.0000     6.2870     0.0000
121 2     1.0000     2.0957     4.1913     0.0000
122 2     1.0000     2.0957     6.2870     2.0957
123 2     1.0000     0.0000     4.1913     2.0957
124 2     1.0000     0.0000     6.2870     4.1913
125 2     1.0000     2.0957     4.1913     4.1913
126 2     1.0000     2.0957     6.2870     6.2870
127 2     1.0000     0.0000     4.1913     6.2870
128 2     1.0000     0.0000     6.2870     8.3826
129 2     1.0000     2.0957     4.1913     8.3826
130 2     1.0000     2.0957     6.2870    10.4783
131 2     1.0000     0.0000     4.1913    10.4783
132 2     1.0000     0.0000    10.4783     0.0000
133 2     1.0000     2.0957     8.3826     0.0000
134 2     1.0000     2.0957    10.4783     2.0957
135 2     1.0000     0.0000     8.3826     2.0957
136 2     1.0000     0.0000    10.4783     4.1913
137 2     1.0000     2.0957     8.3826     4.1913
138 2     1.0000     2.0957    10.4783     6.2870
139 2     1.0000     0.0000     8.3826     6.2870
140 2     1.0000     0.0000    10.4783     8.3826
141 2     1.0000     2.0957     8.3826     8.3826
142 2     1.0000     2.0957    10.4783    10.4783
143 2     1.0000     0.0000     8.3826    10.4783
144 2     1.0000     4.1913     2.0957     0.0000
145 2     1.0000     6.2870     0.0000     0.0000
146 2     1.0000     6.2870     2.0957     2.0957
147 2     1.0000     4.1913     0.0000     2.0957
148 2     1.0000     4.1913     2.0957     4.1913
149 2     1.0000     6.2870     0.0000     4.1913
150 2     1.0000     6.2870     2.0957     6.2870
151 2     1.0000     4.1913     0.0000     6.2870
152 2     1.0000     4.1913     2.0957     8.3826
153 2     1.0000     6.2870     0.0000     8.3826
154 2     1.0000     6.2870     2.0957    10.4783
155 2     1.0000     4.1913     0.0000    10.4783
156 2     1.0000     4.1913     6.2870     0.0000
157 2     1.0000     6.2870     4.1913     0.0000
158 2     1.0000     6.2870     6.2870     2.0957
159 2     1.0000     4.1913     4.1913     2.0957
160 2     1.0000     4.1913     6.2870     4.1913
161 2     1.0000     6.2870     4.1913     4.1913
162 2     1.0000     6.2870     6.2870     6.2870
163 2     1.0000     4.1913     4.1913     6.2870
164 2     1.0000     4.1913     6.2870     8.3826
165 2     1.0000     6.2870     4.1913     8.3826
166 2     1.0000     6.2870     6.2870    10.4783
167 2     1.0000     4.1913     4.1913    10.4783
168 2     1.0000     4.1913    10.4783     0.0000
169 2     1.0000     6.2870     8.3826     0.0000
170 2     1.0000     6.2870    10.4783     2.0957
171 2     1.0000     4.1913     8.3826     2.0957
172 2     1.0000     4.1913    10.4783     4.1913
173 2     1.0000     6.2870     8.3826     4.1913
174 2     1.0000     6.2870    10.4783     6.2870
175 2     1.0000     4.1913     8.3826     6.2870
176 2     1.0000     4.1913    10.4783     8.3826
177 2     1.0000     6.2870     8.3826     8.3826
178 2     1.0000     6.2870    10.4783    10.4783
179 2     1.0000     4.1913     8.3826    10.4783
180 2     1.0000     8.3826     2.0957     0.0000
181 2     1.0000    10.4783     0.0000     0.0000
182 2     1.0000    10.4783     2.0957     2.0957
183 2     1.0000     8.3826     0.0000     2.0957
184 2     1.0000     8.3826     2.0957     4.1913
185 2     1.0000    10.4783     0.0000     4.1913
186 2     1.0000    10.4783     2.0957     6.2870
187 2     1.0000     8.3826     0.0000     6.2870
188 2     1.0000     8.3826     2.0957     8.3826
189 2     1.0000    10.4783     0.0000     8.3826
190 2     1.0000    10.4783     2.0957    10.4783
191 2     1.0000     8.3826     0.0000    10.4783
192 2     1.0000     8.3826     6.2870     0.0000
193 2     1.0000    10.4783     4.1913     0.0000
194 2     1.0000    10.4783     6.2870     2.0957
195 2     1.0000     8.3826     4.1913     2.0957
196 2     1.0000     8.3826     6.2870     4.1913
197 2     1.0000    10.4783     4.1913     4.1913
198 2     1.0000    10.4783     6.2870     6.2870
199 2     1.0000     8.3826     4.1913     6.2870
200 2     1.0000     8.3826     6.2870     8.3826
201 2     1.0000    10.4783     4.1913     8.3826
202 2     1.0000    10.4783     6.2870    10.4783
203 2     1.0000     8.3826     4.1913    10.4783
204 2     1.0000     8.3826    10.4783     0.0000
205 2     1.0000    10.4783     8.3826     0.0000
206 2     1.0000    10.4783    10.4783     2.0957
207 2     1.0000     8.3826     8.3826     2.0957
208 2     1.0000     8.3826    10.4783     4.1913
209 2     1.0000    10.4783     8.3826     4.1913
210 2     1.0000    10.4783    10.4783     6.2870
211 2     1.0000     8.3826     8.3826     6.2870
212 2     1.0000     8.3826    10.4783     8.3826
213 2     1.0000    10.4783     8.3826     8.3826
214 2     1.0000    10.4783    10.4783    10.4783
