# ['Mg', 'O']

216 atoms
2 atom types

    0.0000    16.0127 xlo xhi
    0.0000    16.0127 ylo yhi
    0.0000    16.0127 zlo zhi

    0.0000     0.0000     0.0000 xy xz yz

Atoms

1 1     1.0000     2.6688     2.6688     0.0000
2 1     1.0000     2.6688     0.0000     2.6688
3 1     1.0000     0.0000     0.0000     0.0000
4 1     1.0000     0.0000     2.6688     2.6688
5 1     1.0000     2.6688     2.6688     5.3375
6 1     1.0000     2.6688     0.0000     8.0063
7 1     1.0000     0.0000     0.0000     5.3375
8 1     1.0000     0.0000     2.6688     8.0063
9 1     1.0000     2.6688     2.6688    10.6751
10 1     1.0000     2.6688     0.0000    13.3439
11 1     1.0000     0.0000     0.0000    10.6751
12 1     1.0000     0.0000     2.6688    13.3439
13 1     1.0000     2.6688     8.0063     0.0000
14 1     1.0000     2.6688     5.3375     2.6688
15 1     1.0000     0.0000     5.3375     0.0000
16 1     1.0000     0.0000     8.0063     2.6688
17 1     1.0000     2.6688     8.0063     5.3375
18 1     1.0000     2.6688     5.3375     8.0063
19 1     1.0000     0.0000     5.3375     5.3375
20 1     1.0000     0.0000     8.0063     8.0063
21 1     1.0000     2.6688     8.0063    10.6751
22 1     1.0000     2.6688     5.3375    13.3439
23 1     1.0000     0.0000     5.3375    10.6751
24 1     1.0000     0.0000     8.0063    13.3439
25 1     1.0000     2.6688    13.3439     0.0000
26 1     1.0000     2.6688    10.6751     2.6688
27 1     1.0000     0.0000    10.6751     0.0000
28 1     1.0000     0.0000    13.3439     2.6688
29 1     1.0000     2.6688    13.3439     5.3375
30 1     1.0000     2.6688    10.6751     8.0063
31 1     1.0000     0.0000    10.6751     5.3375
32 1     1.0000     0.0000    13.3439     8.0063
33 1     1.0000     2.6688    13.3439    10.6751
34 1     1.0000     2.6688    10.6751    13.3439
35 1     1.0000     0.0000    10.6751    10.6751
36 1     1.0000     0.0000    13.3439    13.3439
37 1     1.0000     8.0063     2.6688     0.0000
38 1     1.0000     8.0063     0.0000     2.6688
39 1     1.0000     5.3375     0.0000     0.0000
40 1     1.0000     5.3375     2.6688     2.6688
41 1     1.0000     8.0063     2.6688     5.3375
42 1     1.0000     8.0063     0.0000     8.0063
43 1     1.0000     5.3375     0.0000     5.3375
44 1     1.0000     5.3375     2.6688     8.0063
45 1     1.0000     8.0063     2.6688    10.6751
46 1     1.0000     8.0063     0.0000    13.3439
47 1     1.0000     5.3375     0.0000    10.6751
48 1     1.0000     5.3375     2.6688    13.3439
49 1     1.0000     8.0063     8.0063     0.0000
50 1     1.0000     8.0063     5.3375     2.6688
51 1     1.0000     5.3375     5.3375     0.0000
52 1     1.0000     5.3375     8.0063     2.6688
53 1     1.0000     8.0063     8.0063     5.3375
54 1     1.0000     8.0063     5.3375     8.0063
55 1     1.0000     5.3375     5.3375     5.3375
56 1     1.0000     5.3375     8.0063     8.0063
57 1     1.0000     8.0063     8.0063    10.6751
58 1     1.0000     8.0063     5.3375    13.3439
59 1     1.0000     5.3375     5.3375    10.6751
60 1     1.0000     5.3375     8.0063    13.3439
61 1     1.0000     8.0063    13.3439     0.0000
62 1     1.0000     8.0063    10.6751     2.6688
63 1     1.0000     5.3375    10.6751     0.0000
64 1     1.0000     5.3375    13.3439     2.6688
65 1     1.0000     8.0063    13.3439     5.3375
66 1     1.0000     8.0063    10.6751     8.0063
67 1     1.0000     5.3375    10.6751     5.3375
68 1     1.0000     5.3375    13.3439     8.0063
69 1     1.0000     8.0063    13.3439    10.6751
70 1     1.0000     8.0063    10.6751    13.3439
71 1     1.0000     5.3375    10.6751    10.6751
72 1     1.0000     5.3375    13.3439    13.3439
73 1     1.0000    13.3439     2.6688     0.0000
74 1     1.0000    13.3439     0.0000     2.6688
75 1     1.0000    10.6751     0.0000     0.0000
76 1     1.0000    10.6751     2.6688     2.6688
77 1     1.0000    13.3439     2.6688     5.3375
78 1     1.0000    13.3439     0.0000     8.0063
79 1     1.0000    10.6751     0.0000     5.3375
80 1     1.0000    10.6751     2.6688     8.0063
81 1     1.0000    13.3439     2.6688    10.6751
82 1     1.0000    13.3439     0.0000    13.3439
83 1     1.0000    10.6751     0.0000    10.6751
84 1     1.0000    10.6751     2.6688    13.3439
85 1     1.0000    13.3439     8.0063     0.0000
86 1     1.0000    13.3439     5.3375     2.6688
87 1     1.0000    10.6751     5.3375     0.0000
88 1     1.0000    10.6751     8.0063     2.6688
89 1     1.0000    13.3439     8.0063     5.3375
90 1     1.0000    13.3439     5.3375     8.0063
91 1     1.0000    10.6751     5.3375     5.3375
92 1     1.0000    10.6751     8.0063     8.0063
93 1     1.0000    13.3439     8.0063    10.6751
94 1     1.0000    13.3439     5.3375    13.3439
95 1     1.0000    10.6751     5.3375    10.6751
96 1     1.0000    10.6751     8.0063    13.3439
97 1     1.0000    13.3439    13.3439     0.0000
98 1     1.0000    13.3439    10.6751     2.6688
99 1     1.0000    10.6751    10.6751     0.0000
100 1     1.0000    10.6751    13.3439     2.6688
101 1     1.0000    13.3439    13.3439     5.3375
102 1     1.0000    13.3439    10.6751     8.0063
103 1     1.0000    10.6751    10.6751     5.3375
104 1     1.0000    10.6751    13.3439     8.0063
105 1     1.0000    13.3439    13.3439    10.6751
106 1     1.0000    13.3439    10.6751    13.3439
107 1     1.0000    10.6751    10.6751    10.6751
108 1     1.0000    10.6751    13.3439    13.3439
109 2     1.0000     0.0000     2.6688     0.0000
110 2     1.0000     2.6688     0.0000     0.0000
111 2     1.0000     2.6688     2.6688     2.6688
112 2     1.0000     0.0000     0.0000     2.6688
113 2     1.0000     0.0000     2.6688     5.3375
114 2     1.0000     2.6688     0.0000     5.3375
115 2     1.0000     2.6688     2.6688     8.0063
116 2     1.0000     0.0000     0.0000     8.0063
117 2     1.0000     0.0000     2.6688    10.6751
118 2     1.0000     2.6688     0.0000    10.6751
119 2     1.0000     2.6688     2.6688    13.3439
120 2     1.0000     0.0000     0.0000    13.3439
121 2     1.0000     0.0000     8.0063     0.0000
122 2     1.0000     2.6688     5.3375     0.0000
123 2     1.0000     2.6688     8.0063     2.6688
124 2     1.0000     0.0000     5.3375     2.6688
125 2     1.0000     0.0000     8.0063     5.3375
126 2     1.0000     2.6688     5.3375     5.3375
127 2     1.0000     2.6688     8.0063     8.0063
128 2     1.0000     0.0000     5.3375     8.0063
129 2     1.0000     0.0000     8.0063    10.6751
130 2     1.0000     2.6688     5.3375    10.6751
131 2     1.0000     2.6688     8.0063    13.3439
132 2     1.0000     0.0000     5.3375    13.3439
133 2     1.0000     0.0000    13.3439     0.0000
134 2     1.0000     2.6688    10.6751     0.0000
135 2     1.0000     2.6688    13.3439     2.6688
136 2     1.0000     0.0000    10.6751     2.6688
137 2     1.0000     0.0000    13.3439     5.3375
138 2     1.0000     2.6688    10.6751     5.3375
139 2     1.0000     2.6688    13.3439     8.0063
140 2     1.0000     0.0000    10.6751     8.0063
141 2     1.0000     0.0000    13.3439    10.6751
142 2     1.0000     2.6688    10.6751    10.6751
143 2     1.0000     2.6688    13.3439    13.3439
144 2     1.0000     0.0000    10.6751    13.3439
145 2     1.0000     5.3375     2.6688     0.0000
146 2     1.0000     8.0063     0.0000     0.0000
147 2     1.0000     8.0063     2.6688     2.6688
148 2     1.0000     5.3375     0.0000     2.6688
149 2     1.0000     5.3375     2.6688     5.3375
150 2     1.0000     8.0063     0.0000     5.3375
151 2     1.0000     8.0063     2.6688     8.0063
152 2     1.0000     5.3375     0.0000     8.0063
153 2     1.0000     5.3375     2.6688    10.6751
154 2     1.0000     8.0063     0.0000    10.6751
155 2     1.0000     8.0063     2.6688    13.3439
156 2     1.0000     5.3375     0.0000    13.3439
157 2     1.0000     5.3375     8.0063     0.0000
158 2     1.0000     8.0063     5.3375     0.0000
159 2     1.0000     8.0063     8.0063     2.6688
160 2     1.0000     5.3375     5.3375     2.6688
161 2     1.0000     5.3375     8.0063     5.3375
162 2     1.0000     8.0063     5.3375     5.3375
163 2     1.0000     5.3375     5.3375     8.0063
164 2     1.0000     5.3375     8.0063    10.6751
165 2     1.0000     8.0063     5.3375    10.6751
166 2     1.0000     8.0063     8.0063    13.3439
167 2     1.0000     5.3375     5.3375    13.3439
168 2     1.0000     5.3375    13.3439     0.0000
169 2     1.0000     8.0063    10.6751     0.0000
170 2     1.0000     8.0063    13.3439     2.6688
171 2     1.0000     5.3375    10.6751     2.6688
172 2     1.0000     5.3375    13.3439     5.3375
173 2     1.0000     8.0063    10.6751     5.3375
174 2     1.0000     8.0063    13.3439     8.0063
175 2     1.0000     5.3375    10.6751     8.0063
176 2     1.0000     5.3375    13.3439    10.6751
177 2     1.0000     8.0063    10.6751    10.6751
178 2     1.0000     8.0063    13.3439    13.3439
179 2     1.0000     5.3375    10.6751    13.3439
180 2     1.0000    10.6751     2.6688     0.0000
181 2     1.0000    13.3439     0.0000     0.0000
182 2     1.0000    13.3439     2.6688     2.6688
183 2     1.0000    10.6751     0.0000     2.6688
184 2     1.0000    10.6751     2.6688     5.3375
185 2     1.0000    13.3439     0.0000     5.3375
186 2     1.0000    13.3439     2.6688     8.0063
187 2     1.0000    10.6751     0.0000     8.0063
188 2     1.0000    10.6751     2.6688    10.6751
189 2     1.0000    13.3439     0.0000    10.6751
190 2     1.0000    13.3439     2.6688    13.3439
191 2     1.0000    10.6751     0.0000    13.3439
192 2     1.0000    10.6751     8.0063     0.0000
193 2     1.0000    13.3439     5.3375     0.0000
194 2     1.0000    13.3439     8.0063     2.6688
195 2     1.0000    10.6751     5.3375     2.6688
196 2     1.0000    10.6751     8.0063     5.3375
197 2     1.0000    13.3439     5.3375     5.3375
198 2     1.0000    13.3439     8.0063     8.0063
199 2     1.0000    10.6751     5.3375     8.0063
200 2     1.0000    10.6751     8.0063    10.6751
201 2     1.0000    13.3439     5.3375    10.6751
202 2     1.0000    13.3439     8.0063    13.3439
203 2     1.0000    10.6751     5.3375    13.3439
204 2     1.0000    10.6751    13.3439     0.0000
205 2     1.0000    13.3439    10.6751     0.0000
206 2     1.0000    13.3439    13.3439     2.6688
207 2     1.0000    10.6751    10.6751     2.6688
208 2     1.0000    10.6751    13.3439     5.3375
209 2     1.0000    13.3439    10.6751     5.3375
210 2     1.0000    13.3439    13.3439     8.0063
211 2     1.0000    10.6751    10.6751     8.0063
212 2     1.0000    10.6751    13.3439    10.6751
213 2     1.0000    13.3439    10.6751    10.6751
214 2     1.0000    13.3439    13.3439    13.3439
215 2     1.0000    10.6751    10.6751    13.3439
216 2     1.0000    12.0095    12.0095    12.0095
