LAMMPS (10 Feb 2015)
Reading data file ...
  triclinic box = (0 0 0) to (13.4833 13.4833 13.4833) with tilt (0 0 0)
  1 by 1 by 1 MPI processor grid
  reading atoms ...
  214 atoms
107 atoms in group magnesium
107 atoms in group oxygen
Setting atom values ...
  107 settings made for charge
Setting atom values ...
  107 settings made for charge
PPPM initialization ...
  G vector (1/distance) = 0.352261
  grid = 24 24 24
  stencil order = 5
  estimated absolute RMS force accuracy = 6.40063e-05
  estimated relative force accuracy = 4.44499e-06
  using double precision FFTs
  3d grid and FFT values/proc = 29791 13824
Neighbor list info ...
  1 neighbor list requests
  update every 1 steps, delay 0 steps, check yes
  master list distance cutoff = 11
Setting up minimization ...
Memory usage per processor = 7.83205 Mbytes
Step PotEng Lx Ly Lz Xy Xz Yz Press Pxx Pyy Pzz Pxy Pxz Pyz eatoms 
       0   -4464.2963      13.4833      13.4833      13.4833            0            0            0   -2121.5441    -1724.286    -1724.286   -2916.0602   -361.74273  0.013867371  0.013867371   -4464.2963 
       1   -4486.6892      13.4833      13.4833      13.4833            0            0            0   -3562.5687    -3496.802    -3496.802   -3694.1021    61.734383 -0.0088274438 -0.008827444   -4486.6892 
       2   -4492.6305      13.4833      13.4833      13.4833            0            0            0    975.00937    999.26876    999.26876    926.49058    312.31954 -0.010674524 -0.010674525   -4492.6305 
       3   -4493.8935      13.4833      13.4833      13.4833            0            0            0    2048.6171    2083.2152    2083.2152    1979.4208    123.47302 -0.0003766771 -0.00037667709   -4493.8935 
       4   -4494.6657      13.4833      13.4833      13.4833            0            0            0    5615.9576    5546.7294    5546.7294    5754.4139    75.645017 -0.00020619907 -0.00020619925   -4494.6657 
       5   -4495.3363      13.4833      13.4833      13.4833            0            0            0     9831.331    9636.9826    9636.9826    10220.028   -306.80885 0.0083748024 0.0083748025   -4495.3363 
       6   -4495.8257      13.4833      13.4833      13.4833            0            0            0     14891.12    14675.383    14675.383    15322.592   -783.61903 -0.0081450943 -0.0081450945   -4495.8257 
       7   -4496.1438      13.4833      13.4833      13.4833            0            0            0    18089.155    17768.947    17768.947    18729.571   -864.69881 -0.015090786 -0.015090785   -4496.1438 
       8   -4496.3746      13.4833      13.4833      13.4833            0            0            0    20940.246    20563.659    20563.659     21693.42   -1198.1714 -0.023555224 -0.023555225   -4496.3746 
       9   -4496.7105      13.4833      13.4833      13.4833            0            0            0    26144.477    25785.014    25785.014    26863.402    -1846.616 -0.018534718 -0.018534718   -4496.7105 
      10   -4497.0376      13.4833      13.4833      13.4833            0            0            0    33273.824    32890.451    32890.451     34040.57   -2115.6195 0.0094388116 0.0094388122   -4497.0376 
      11   -4497.2901      13.4833      13.4833      13.4833            0            0            0    38058.618    37917.485    37917.485    38340.884    -2613.538  0.038207555  0.038207554   -4497.2901 
      12   -4497.4112      13.4833      13.4833      13.4833            0            0            0    40340.911    40435.602    40435.602    40151.528   -3007.6068  0.039716422  0.039716423   -4497.4112 
      13   -4497.5902      13.4833      13.4833      13.4833            0            0            0    43923.202    44298.916    44298.916    43171.772   -2805.6412  0.039294427  0.039294427   -4497.5902 
      14   -4497.7565      13.4833      13.4833      13.4833            0            0            0    47790.978    48722.644    48722.644    45927.646   -2712.2788 -0.025041162 -0.025041161   -4497.7565 
      15   -4498.0069      13.4833      13.4833      13.4833            0            0            0    55869.612    57863.723    57863.723    51881.391    -2648.017  0.020175744  0.020175742   -4498.0069 
      16   -4498.2446      13.4833      13.4833      13.4833            0            0            0    62231.193    65426.441    65426.441    55840.697   -2374.3854  0.065939641  0.065939644   -4498.2446 
      17   -4498.6263      13.4833      13.4833      13.4833            0            0            0    73021.498     77849.55    77849.551    63365.392   -2333.3527 -0.018654003 -0.018836295   -4498.6263 
      18   -4499.0289      13.4833      13.4833      13.4833            0            0            0    82107.332    88139.597    88139.596    70042.802   -2311.3166  0.095502513  0.095316941   -4499.0289 
      19   -4499.6893      13.4833      13.4833      13.4833            0            0            0    96878.723    104211.36    104211.35    82213.458   -3117.8945   0.28039473   0.28109199   -4499.6893 
      20   -4500.2104      13.4833      13.4833      13.4833            0            0            0    107390.74    116005.92    116005.92    90160.371   -3435.5672   0.46643761    0.4686647   -4500.2104 
      21   -4501.0027      13.4833      13.4833      13.4833            0            0            0    115553.15    124719.66    124719.65     97220.14     -3354.59   0.77109044   0.77132863   -4501.0027 
      22   -4501.8482      13.4833      13.4833      13.4833            0            0            0    118313.01    127726.31    127726.31    99486.419   -3657.9137    1.0509746    1.0501078   -4501.8482 
      23    -4502.549      13.4833      13.4833      13.4833            0            0            0     124279.5    133822.13    133822.14    105194.22    -3891.976     1.540315    1.5397469    -4502.549 
      24   -4503.0337      13.4833      13.4833      13.4833            0            0            0     123026.5    132134.96    132134.94    104809.59   -3920.3142    2.1541566    2.1539674   -4503.0337 
      25   -4503.5647      13.4833      13.4833      13.4833            0            0            0    121267.06    130160.64    130160.64    103479.89    -3582.612     2.897597      2.89759   -4503.5647 
      26   -4503.9891      13.4833      13.4833      13.4833            0            0            0    122192.44    131177.34    131177.35    104222.63     -2130.33    3.4423213    3.4394836   -4503.9891 
      27   -4504.5463      13.4833      13.4833      13.4833            0            0            0    125703.28    135717.17    135717.17    105675.49    343.02207    5.7265492    5.7233281   -4504.5463 
      28   -4504.9833      13.4833      13.4833      13.4833            0            0            0    129895.63    140212.95    140212.94    109261.01    1927.9215    8.7109829    8.7099913   -4504.9833 
      29   -4505.4382      13.4833      13.4833      13.4833            0            0            0    136112.95    146880.23    146880.24    114578.37    4382.4921    12.713704    12.720437   -4505.4382 
      30   -4505.8202      13.4833      13.4833      13.4833            0            0            0    143755.31    155366.29    155366.28    120533.37    6602.1647    18.905658    18.911099   -4505.8202 
      31   -4506.2486      13.4833      13.4833      13.4833            0            0            0    152828.42    165631.87    165631.87     127221.5    8626.1565    28.050763    28.045376   -4506.2486 
      32   -4506.5245      13.4833      13.4833      13.4833            0            0            0    159199.51    173127.98    173127.98    131342.59    7844.6304    35.936352    35.946202   -4506.5245 
      33   -4506.8547      13.4833      13.4833      13.4833            0            0            0    165424.41    180062.51    180062.51    136148.22    8443.5392    50.183197    50.199193   -4506.8547 
      34   -4507.1707      13.4833      13.4833      13.4833            0            0            0    170345.03    185194.86    185194.85    140645.37    8664.5871    67.948864    67.972739   -4507.1707 
      35    -4507.546      13.4833      13.4833      13.4833            0            0            0    171359.28    185491.99    185491.97    143093.89    9050.1861    92.136619    92.178035    -4507.546 
      36   -4507.8318      13.4833      13.4833      13.4833            0            0            0    169874.15     183210.8    183210.76    143200.89    10212.751    117.32509    117.37998   -4507.8318 
      37   -4508.1686      13.4833      13.4833      13.4833            0            0            0    168146.59    180234.82    180234.81    143970.13    12122.989    162.89368    162.94707   -4508.1686 
      38   -4508.5126      13.4833      13.4833      13.4833            0            0            0    167900.92    178912.02    178912.01    145878.75    12890.973    214.57104    214.63922   -4508.5126 
      39   -4508.9443      13.4833      13.4833      13.4833            0            0            0    168061.96    178149.46    178149.46    147886.98     15034.43    297.86234    297.94563   -4508.9443 
      40   -4509.3832      13.4833      13.4833      13.4833            0            0            0    170360.38    180480.05    180480.06    150121.03     16373.06    428.19092    428.28668   -4509.3832 
      41   -4509.8711      13.4833      13.4833      13.4833            0            0            0    174867.67    186074.33    186074.38    152454.29    16371.497    595.20074    595.27585   -4509.8711 
      42   -4510.3656      13.4833      13.4833      13.4833            0            0            0    178856.31    190777.47     190777.5    155013.96    17295.636     809.0339    809.11876   -4510.3656 
      43   -4510.8736      13.4833      13.4833      13.4833            0            0            0    184299.58       197580    197580.05    157738.67    17438.012     1164.249    1164.3128   -4510.8736 
      44    -4511.431      13.4833      13.4833      13.4833            0            0            0    190990.58    205666.68    205666.75    161638.31      17206.4    1711.7088    1711.7262    -4511.431 
      45   -4511.9448      13.4833      13.4833      13.4833            0            0            0    197238.51    213298.27    213298.33    165118.92    17355.988    2324.9804    2324.9402   -4511.9448 
      46   -4512.4887      13.4833      13.4833      13.4833            0            0            0     203098.6    219395.42    219395.44    170504.93     16714.26    3072.3482    3072.2399   -4512.4887 
      47   -4513.0522      13.4833      13.4833      13.4833            0            0            0    206305.07    222011.05    222011.05    174893.09     16401.57    3864.6022    3864.3876   -4513.0522 
      48   -4513.5415      13.4833      13.4833      13.4833            0            0            0    206828.72    221065.36    221065.35    178355.44    14919.969    4623.7278    4623.4288   -4513.5415 
      49   -4513.9216      13.4833      13.4833      13.4833            0            0            0    207430.27    220464.57    220464.54     181361.7    14159.666    5419.1537    5418.7578   -4513.9216 
      50   -4514.4157      13.4833      13.4833      13.4833            0            0            0    208922.11    220837.76    220837.73    185090.84    12769.336    6314.1324    6313.5738   -4514.4157 
      51   -4514.9261      13.4833      13.4833      13.4833            0            0            0    211949.13    223779.61     223779.5    188288.27    10836.237    7382.6414    7381.9318   -4514.9261 
      52   -4515.4379      13.4833      13.4833      13.4833            0            0            0    216966.57     228294.5    228294.39     194310.8    11122.409    8288.3663    8287.4173   -4515.4379 
      53   -4515.8796      13.4833      13.4833      13.4833            0            0            0     217867.6    228651.61    228651.66    196299.53    12434.813    8280.7488    8279.6723   -4515.8796 
      54   -4516.3329      13.4833      13.4833      13.4833            0            0            0    219982.49    230881.56    230881.73    198184.17      12073.6    8172.6577    8171.4155   -4516.3329 
      55   -4516.6933      13.4833      13.4833      13.4833            0            0            0    224174.42    235249.24    235249.34    202024.68    12870.923    8104.7888    8103.2727   -4516.6933 
      56   -4517.0913      13.4833      13.4833      13.4833            0            0            0    229592.54    240327.06    240327.01    208123.55    13276.407     7884.482    7882.5461   -4517.0913 
      57   -4517.3767      13.4833      13.4833      13.4833            0            0            0    233982.71    244727.84    244727.66    212492.65    13721.328    7534.2679    7532.0463   -4517.3767 
      58   -4517.7322      13.4833      13.4833      13.4833            0            0            0    239399.74    250258.58    250258.46    217682.18    14147.379    7194.7041    7192.1382   -4517.7322 
      59   -4517.9858      13.4833      13.4833      13.4833            0            0            0    243704.15    254171.34    254171.29     222769.8    13293.005    6897.3437    6894.6066   -4517.9858 
      60    -4518.217      13.4833      13.4833      13.4833            0            0            0    248062.62    259053.76    259053.76    226080.34    12766.443    6686.8155    6683.8696    -4518.217 
      61   -4518.4095      13.4833      13.4833      13.4833            0            0            0     252082.5    262918.81     262918.9    230409.79    12131.937    6145.3274    6142.1603   -4518.4095 
      62    -4518.584      13.4833      13.4833      13.4833            0            0            0    255689.71    266728.54    266728.54    233612.05    11523.125     5747.655    5744.2402    -4518.584 
      63   -4518.8361      13.4833      13.4833      13.4833            0            0            0    261143.88    271818.88    271818.56     239794.2     11922.32    5078.5934    5074.9094   -4518.8361 
      64   -4519.0516      13.4833      13.4833      13.4833            0            0            0    264792.19     275499.9    275499.19    243377.48    11821.103    4335.2858    4331.3818   -4519.0516 
      65   -4519.3142      13.4833      13.4833      13.4833            0            0            0    268911.04    279675.63    279674.33    247383.16    12299.611    3638.8507    3635.0869   -4519.3142 
      66   -4519.5686      13.4833      13.4833      13.4833            0            0            0    272412.79    283464.25    283462.07    250312.06    12777.974    3008.3314    3004.5948   -4519.5686 
      67   -4519.8021      13.4833      13.4833      13.4833            0            0            0    275630.08    287344.71    287341.67    252203.87    12545.326    2506.3744    2502.4433   -4519.8021 
      68   -4520.0394      13.4833      13.4833      13.4833            0            0            0    277202.09    289241.05    289238.12    253127.11    12672.445    1893.4619    1888.9009   -4520.0394 
      69   -4520.2418      13.4833      13.4833      13.4833            0            0            0     278636.9    291169.69    291167.23    253573.79     12672.36    1674.8085    1669.6227   -4520.2418 
      70   -4520.4025      13.4833      13.4833      13.4833            0            0            0    278839.41    291924.38    291922.43    252671.41    12601.922    1611.0571     1605.453   -4520.4025 
      71   -4520.5552      13.4833      13.4833      13.4833            0            0            0    278356.67    291605.21    291603.36    251861.44    12621.898    1369.6305    1363.8689   -4520.5552 
      72      -4520.7      13.4833      13.4833      13.4833            0            0            0    277440.31    290776.73    290774.32    250769.89    12390.626    904.78995    898.40522      -4520.7 
      73   -4520.8687      13.4833      13.4833      13.4833            0            0            0    277175.74    289973.09    289970.32    251583.82    12306.738    -223.9899   -231.14398   -4520.8687 
      74   -4521.0224      13.4833      13.4833      13.4833            0            0            0    277000.38    289740.37    289737.39    251523.39      12456.8   -1385.3223   -1393.1606   -4521.0224 
      75    -4521.158      13.4833      13.4833      13.4833            0            0            0    277627.65    290149.73    290146.63    252586.59     11929.16   -2727.9457   -2736.2397    -4521.158 
      76   -4521.2723      13.4833      13.4833      13.4833            0            0            0    277856.88    290495.92    290491.65    252583.07    11665.097   -4072.7471   -4081.8804   -4521.2723 
      77   -4521.3655      13.4833      13.4833      13.4833            0            0            0    278106.64    290490.72    290483.84    253345.35    11276.872   -4959.2313    -4969.518   -4521.3655 
      78   -4521.4425      13.4833      13.4833      13.4833            0            0            0    277978.19    290133.34    290122.06    253679.16    11078.464   -5544.9527   -5556.3571   -4521.4425 
      79    -4521.509      13.4833      13.4833      13.4833            0            0            0    278143.09    290042.91    290027.07    254359.29    10782.099   -6020.4425   -6032.5915    -4521.509 
      80   -4521.5771      13.4833      13.4833      13.4833            0            0            0    277928.91     289574.6    289554.86    254657.26     10948.85   -6465.4268   -6478.2117   -4521.5771 
      81     -4521.65      13.4833      13.4833      13.4833            0            0            0     277656.6    289112.56    289090.88    254766.37    10994.171   -6945.1756   -6958.3787     -4521.65 
      82   -4521.7321      13.4833      13.4833      13.4833            0            0            0    277176.68    288553.17    288532.31    254444.57    11101.939   -7131.6708   -7145.7724   -4521.7321 
      83   -4521.8324      13.4833      13.4833      13.4833            0            0            0    276994.31    288327.69    288309.67    254345.56    10840.857   -7327.7767   -7343.0879   -4521.8324 
      84   -4521.9247      13.4833      13.4833      13.4833            0            0            0    276677.96    288112.18    288095.76    253825.93    10802.155   -7301.1791   -7317.3738   -4521.9247 
      85   -4522.0377      13.4833      13.4833      13.4833            0            0            0    276635.28    287998.33    287976.21     253931.3     10594.26   -7076.6602   -7094.5623   -4522.0377 
      86   -4522.1591      13.4833      13.4833      13.4833            0            0            0     276601.3    288149.97    288117.87    253536.05    10885.763   -6933.9096   -6953.0622   -4522.1591 
      87    -4522.312      13.4833      13.4833      13.4833            0            0            0    278123.29    289363.29    289317.44    255689.13    11884.041   -6647.1906   -6669.4786    -4522.312 
      88   -4522.4593      13.4833      13.4833      13.4833            0            0            0    279761.29    290992.61    290942.77     257348.5    13612.604   -6437.7235   -6462.9869   -4522.4593 
      89   -4522.6286      13.4833      13.4833      13.4833            0            0            0    281810.97     292788.5    292745.34    259899.06    14718.549   -6167.2744   -6193.5493   -4522.6286 
      90   -4522.8147      13.4833      13.4833      13.4833            0            0            0    283318.14    294520.73    294486.25    260947.44        16144   -5937.0636   -5962.3486   -4522.8147 
      91   -4523.0238      13.4833      13.4833      13.4833            0            0            0    284963.64    295882.03    295841.38    263167.49    16994.177   -5503.9487   -5529.8897   -4523.0238 
      92   -4523.2098      13.4833      13.4833      13.4833            0            0            0     285554.4    296339.55    296291.32    264032.31    18385.186   -4996.0532   -5022.7736   -4523.2098 
      93   -4523.3874      13.4833      13.4833      13.4833            0            0            0    286034.37    296300.48    296246.27    265556.36    19189.434   -4025.9693   -4052.0773   -4523.3874 
      94   -4523.5237      13.4833      13.4833      13.4833            0            0            0    285714.92    295785.14    295725.82     265633.8    19981.944   -3198.7767    -3223.339   -4523.5237 
      95     -4523.66      13.4833      13.4833      13.4833            0            0            0     285749.3    295451.36    295377.04    266419.49    20386.867   -2082.2155   -2103.1748     -4523.66 
      96    -4523.752      13.4833      13.4833      13.4833            0            0            0    285091.66     294716.9    294631.08    265927.01    21034.348   -1342.1627   -1360.2892    -4523.752 
      97    -4523.837      13.4833      13.4833      13.4833            0            0            0    284673.15    294014.81    293916.43     266088.2    21592.333   -801.75945   -817.47874    -4523.837 
      98   -4523.9004      13.4833      13.4833      13.4833            0            0            0     284012.8    293240.91    293138.04    265659.44    22320.709   -341.12389   -355.91477   -4523.9004 
      99    -4523.956      13.4833      13.4833      13.4833            0            0            0    283607.42     292738.1    292630.35     265453.8    22803.278    79.142097    65.553665    -4523.956 
     100    -4524.007      13.4833      13.4833      13.4833            0            0            0    283044.04    292227.17    292109.27    264795.67    23490.088    700.00041    688.82173    -4524.007 
     101   -4524.0523      13.4833      13.4833      13.4833            0            0            0    282823.79    291950.78    291819.74    264700.86     24152.84    1494.8142    1486.9716   -4524.0523 
     102   -4524.0988      13.4833      13.4833      13.4833            0            0            0    282838.47    291930.23    291780.07    264805.11    25107.815    2609.6256     2606.938   -4524.0988 
     103   -4524.1544      13.4833      13.4833      13.4833            0            0            0    283624.38    292691.55    292515.08     265666.5     26420.79    4255.2251    4260.4894   -4524.1544 
     104   -4524.2421      13.4833      13.4833      13.4833            0            0            0    285403.96    294828.52     294612.2    266771.15    28535.158    6838.6166    6854.3745   -4524.2421 
     105   -4524.3515      13.4833      13.4833      13.4833            0            0            0    287875.71    297699.33    297461.27    268466.55    30485.985    9330.3409    9339.1817   -4524.3515 
     106    -4524.596      13.4833      13.4833      13.4833            0            0            0    290413.04    300345.22    300051.66    270842.25    31427.355    11485.444    11492.408    -4524.596 
     107   -4524.7683      13.4833      13.4833      13.4833            0            0            0    292137.07    302026.15    301587.64    272797.43    32224.074    13107.275    13147.448   -4524.7683 
     108   -4524.9635      13.4833      13.4833      13.4833            0            0            0     295168.9    305052.76    304278.29    276175.66    32906.254     15219.22    15362.177   -4524.9635 
     109   -4525.0976      13.4833      13.4833      13.4833            0            0            0    296052.61    305912.04    305138.32    277107.47    33240.547    15647.714    15827.935   -4525.0976 
     110   -4525.3102      13.4833      13.4833      13.4833            0            0            0     297287.1    306953.64    306370.11    278537.54    34381.726    16494.084    16755.577   -4525.3102 
     111   -4525.4791      13.4833      13.4833      13.4833            0            0            0    298269.49    307805.88     307476.7    279525.88    34767.474    17210.591    17488.782   -4525.4791 
     112   -4525.6459      13.4833      13.4833      13.4833            0            0            0    300207.96    309728.97    309646.56    281248.36    35069.153    18015.866    18196.519   -4525.6459 
     113   -4525.8105      13.4833      13.4833      13.4833            0            0            0    302072.95     311708.4    311685.22    282825.22    35617.736    18662.946    18722.936   -4525.8105 
     114   -4525.9242      13.4833      13.4833      13.4833            0            0            0    303455.61    313230.15    313086.39    284050.28     36035.28    18976.474    18962.139   -4525.9242 
     115   -4526.0805      13.4833      13.4833      13.4833            0            0            0    306430.62    316551.64    316131.46    286608.76    36739.125    19397.393    19275.168   -4526.0805 
     116   -4526.1801      13.4833      13.4833      13.4833            0            0            0    308626.83    319024.35    318551.96    288304.18    37059.367    19626.984    19442.538   -4526.1801 
     117   -4526.2822      13.4833      13.4833      13.4833            0            0            0    310966.08    321757.44    321457.46    289683.33    37345.247    19873.958     19635.12   -4526.2822 
     118   -4526.3563      13.4833      13.4833      13.4833            0            0            0    312495.11    323485.13    323367.75    290632.46    37540.196    20218.956    19968.173   -4526.3563 
     119   -4526.4256      13.4833      13.4833      13.4833            0            0            0    313648.47    324469.32    324451.14    292024.94    37919.402    20612.312    20370.096   -4526.4256 
     120   -4526.5138      13.4833      13.4833      13.4833            0            0            0    315159.59    325709.65    325720.16    294048.96    38490.617    21216.614    21012.762   -4526.5138 
     121   -4526.6235      13.4833      13.4833      13.4833            0            0            0    317362.93    327508.76    327534.96    297045.07    38785.395    21894.313    21712.584   -4526.6235 
     122   -4526.7348      13.4833      13.4833      13.4833            0            0            0    319639.78    329363.58    329477.64    300078.11    39074.017    22497.053    22248.746   -4526.7348 
     123   -4526.8756      13.4833      13.4833      13.4833            0            0            0    322655.43    332288.72    332443.82    303233.75    38884.277    23135.854    22736.227   -4526.8756 
     124   -4527.0772      13.4833      13.4833      13.4833            0            0            0    326931.42    336534.46    336430.72    307829.07    38248.897    24043.682    23431.801   -4527.0772 
     125   -4527.3503      13.4833      13.4833      13.4833            0            0            0    330887.26    340151.11    339850.53    312660.13    37117.172    24267.778    23454.144   -4527.3503 
     126    -4527.798      13.4833      13.4833      13.4833            0            0            0    333316.62    342367.21    341978.27    315604.36    36036.121    23473.426    22607.337    -4527.798 
     127    -4528.499      13.4833      13.4833      13.4833            0            0            0    334634.98    343618.65    343267.43    317018.86    35232.914    22668.932    21878.885    -4528.499 
     128   -4529.3233      13.4833      13.4833      13.4833            0            0            0    335829.46    344512.15    343844.21    319132.02    34106.463    21338.678    20716.702   -4529.3233 
     129    -4530.244      13.4833      13.4833      13.4833            0            0            0    337663.62    346384.47     345199.6    321406.79    33262.733    19701.371    19166.494    -4530.244 
     130   -4531.1292      13.4833      13.4833      13.4833            0            0            0    338870.88    347098.26    345297.83    324216.55    32366.735    18094.873    17513.366   -4531.1292 
     131   -4532.0154      13.4833      13.4833      13.4833            0            0            0    341473.05    349745.75    347481.62    327191.77    31520.945    15887.265    15155.816   -4532.0154 
     132   -4532.8377      13.4833      13.4833      13.4833            0            0            0    343544.62    351726.37       349601    329306.48    30739.964    14768.135    14100.432   -4532.8377 
     133   -4533.5419      13.4833      13.4833      13.4833            0            0            0    345088.84    353128.17    351205.19    330933.17    30146.254    13556.199     13228.46   -4533.5419 
     134   -4534.3275      13.4833      13.4833      13.4833            0            0            0    344777.81    352504.38    350582.33    331246.71    30114.757    13504.955    13642.044   -4534.3275 
     135   -4535.1821      13.4833      13.4833      13.4833            0            0            0     344231.1    351084.54    349577.28    332031.48    30210.048    13179.715    13549.995   -4535.1821 
     136   -4536.0921      13.4833      13.4833      13.4833            0            0            0    343390.69       350446     348730.2    330995.89    30057.398    12635.941    13435.383   -4536.0921 
     137   -4537.0374      13.4833      13.4833      13.4833            0            0            0    341773.24    348512.17    347258.66    329548.89    29921.574    12231.065    13244.708   -4537.0374 
     138   -4538.3156      13.4833      13.4833      13.4833            0            0            0       340002    347009.63    345700.92    327295.46    30306.752    12125.216    13190.136   -4538.3156 
     139   -4539.6273      13.4833      13.4833      13.4833            0            0            0     338750.9    344962.71    345300.13    325989.87    30679.439    11714.021    11791.929   -4539.6273 
     140   -4540.8898      13.4833      13.4833      13.4833            0            0            0    337065.68    342706.51    344065.89    324424.63    31039.633    12016.968    11706.221   -4540.8898 
     141   -4542.1213      13.4833      13.4833      13.4833            0            0            0     336968.1    343013.14    344588.67    323302.49    30632.001     11454.22    11297.726   -4542.1213 
     142   -4543.3054      13.4833      13.4833      13.4833            0            0            0    337019.44     343495.2    344828.86    322734.27    29653.428     11786.84    11654.348   -4543.3054 
     143   -4544.5296      13.4833      13.4833      13.4833            0            0            0    337105.52    343737.11    344877.91    322701.55    28759.534    11903.209    12013.181   -4544.5296 
     144   -4546.0506      13.4833      13.4833      13.4833            0            0            0    337393.99    343927.02    343610.13    324644.83      27372.8    12053.722    12198.601   -4546.0506 
     145    -4547.686      13.4833      13.4833      13.4833            0            0            0    336656.64    341917.69    341328.08    326724.16    26635.896    12328.695    12335.808    -4547.686 
     146   -4549.0764      13.4833      13.4833      13.4833            0            0            0    335543.89     339744.3    339153.12    327734.24    24984.539     11993.42    11655.634   -4549.0764 
     147   -4550.4024      13.4833      13.4833      13.4833            0            0            0    334679.89    337936.98    336322.98     329779.7    24526.893    11406.309    11007.359   -4550.4024 
     148   -4551.7106      13.4833      13.4833      13.4833            0            0            0    334030.76     336780.8    334294.84    331016.63    24117.499    10433.069    9968.7178   -4551.7106 
     149   -4552.8392      13.4833      13.4833      13.4833            0            0            0    333358.16    335941.18    332374.42    331758.89    23580.327    9505.2686    9337.5108   -4552.8392 
     150   -4553.8209      13.4833      13.4833      13.4833            0            0            0    333033.26     336057.1    331636.91    331405.77     22747.17    8510.5537    8377.4614   -4553.8209 
     151   -4554.8308      13.4833      13.4833      13.4833            0            0            0    332459.32    335305.25    330276.33    331796.38    21748.965    7636.4797    7627.4179   -4554.8308 
     152   -4555.9502      13.4833      13.4833      13.4833            0            0            0    331945.36    335239.62    329382.67    331213.78    20485.765    6274.6173    6349.2387   -4555.9502 
     153   -4557.0273      13.4833      13.4833      13.4833            0            0            0    331202.23    334428.49    327649.93    331528.27     19244.46    5131.1297    5405.7974   -4557.0273 
     154   -4558.1358      13.4833      13.4833      13.4833            0            0            0    330527.48    333955.22    326336.58    331290.63    17770.678    3675.2368    4244.1313   -4558.1358 
     155   -4559.4119      13.4833      13.4833      13.4833            0            0            0    329552.99    332559.45    324288.47    331811.06    15600.304    2254.2006    3022.8863   -4559.4119 
     156   -4560.7231      13.4833      13.4833      13.4833            0            0            0    328452.88    331107.67    322752.44    331498.54    14055.593    865.35339     1761.845   -4560.7231 
     157   -4561.5586      13.4833      13.4833      13.4833            0            0            0    327608.37    329770.22       322313     330741.9    12879.891    99.063822    578.32004   -4561.5586 
     158   -4562.6945      13.4833      13.4833      13.4833            0            0            0    326419.13     327816.1    321172.02    330269.27    11578.933   -626.59253    -352.7161   -4562.6945 
     159   -4563.6199      13.4833      13.4833      13.4833            0            0            0    325412.31    326588.55    320157.43    329490.95    10244.064   -1501.3933   -1014.7843   -4563.6199 
     160     -4564.57      13.4833      13.4833      13.4833            0            0            0    324278.02    325432.69    319258.74    328142.63    9586.8388   -2084.6396   -1768.8272     -4564.57 
     161   -4565.6599      13.4833      13.4833      13.4833            0            0            0    322987.96    324086.06    317990.89    326886.92    8478.8755   -2758.3164   -2440.0246   -4565.6599 
     162   -4566.7651      13.4833      13.4833      13.4833            0            0            0    321663.01    323188.79    316716.65    325083.57    7267.0627   -3308.3854   -2924.8315   -4566.7651 
     163   -4567.7577      13.4833      13.4833      13.4833            0            0            0    320585.05    322539.12    315480.65    323735.37    6586.8824   -3651.8293    -3114.953   -4567.7577 
     164   -4568.7751      13.4833      13.4833      13.4833            0            0            0     319487.3    321992.82     314495.6    321973.49    5640.4469   -3657.4472   -3213.7687   -4568.7751 
     165   -4569.7901      13.4833      13.4833      13.4833            0            0            0    318478.61    321497.29    313446.76    320491.78    4981.0497   -3807.5741   -3071.6621   -4569.7901 
     166   -4570.8661      13.4833      13.4833      13.4833            0            0            0    317319.23    320718.57    312854.62     318384.5    4237.4507    -3468.577   -2994.7344   -4570.8661 
     167   -4571.8023      13.4833      13.4833      13.4833            0            0            0    316361.46    319950.37    312333.95    316800.07    3568.4204   -3585.4079   -2709.3091   -4571.8023 
     168   -4572.6618      13.4833      13.4833      13.4833            0            0            0     315304.2    318767.88    312331.25    314813.47    3006.6189   -3285.9438   -2641.7364   -4572.6618 
     169   -4573.4094      13.4833      13.4833      13.4833            0            0            0    314484.16    317628.19    312426.98    313397.31    2396.2056   -3329.1438   -2549.9178   -4573.4094 
     170   -4574.0843      13.4833      13.4833      13.4833            0            0            0    313467.44    316334.14     312916.6    311151.58    1917.8926   -2925.1033   -2485.9061   -4574.0843 
     171   -4574.8154      13.4833      13.4833      13.4833            0            0            0    312898.41    315458.63    313241.35    309995.26    1364.1011   -2991.2479   -2255.5889   -4574.8154 
     172   -4575.6162      13.4833      13.4833      13.4833            0            0            0    311835.55    314456.16    314038.26    307012.23    958.91671   -2466.9045   -1921.1035   -4575.6162 
     173   -4576.5687      13.4833      13.4833      13.4833            0            0            0    311219.97    313728.21    314350.94    305580.75    481.52364   -2533.2707   -1886.1959   -4576.5687 
     174   -4577.5025      13.4833      13.4833      13.4833            0            0            0    310189.68    313214.38    314571.08    302783.57     495.3817   -2300.8635   -1776.4314   -4577.5025 
     175   -4578.0375      13.4833      13.4833      13.4833            0            0            0    309512.57    312908.78    314179.65    301449.27    574.36013   -2073.7543   -1684.4822   -4578.0375 
     176   -4578.8079      13.4833      13.4833      13.4833            0            0            0    309118.32    312670.09    313783.03    300901.83      781.962   -2181.3722   -1807.6053   -4578.8079 
     177   -4579.2692      13.4833      13.4833      13.4833            0            0            0    308974.68    312429.82    313407.06    301087.16    828.70091   -2566.2877    -2057.079   -4579.2692 
     178   -4580.0904      13.4833      13.4833      13.4833            0            0            0    308195.75    311808.01     313464.7    299314.55    1054.8445   -2537.1898   -1868.1811   -4580.0904 
     179   -4580.6532      13.4833      13.4833      13.4833            0            0            0    307974.78    311398.32    314022.16    298503.86    1212.9692   -2809.6798    -1686.496   -4580.6532 
     180   -4581.5038      13.4833      13.4833      13.4833            0            0            0    307584.65     311096.5    314301.66    297355.78    1358.5831    -3401.196   -1837.8029   -4581.5038 
     181   -4582.0413      13.4833      13.4833      13.4833            0            0            0     307049.8    310904.73    313690.88    296553.78    1425.0097   -3758.3562   -2225.7233   -4582.0413 
     182   -4583.0526      13.4833      13.4833      13.4833            0            0            0    305931.46    309963.22    313774.97     294056.2    1666.4633   -4370.6278   -2672.7031   -4583.0526 
     183   -4583.9827      13.4833      13.4833      13.4833            0            0            0    305723.66    309825.53    314430.64    292914.81    2318.4455   -5398.8038   -2622.2824   -4583.9827 
     184   -4584.6801      13.4833      13.4833      13.4833            0            0            0    305683.81    309929.37    315215.21    291906.86    2906.6377   -5844.0791   -2642.8498   -4584.6801 
     185   -4585.0097      13.4833      13.4833      13.4833            0            0            0    304983.33     309499.9    314523.05    290927.03    2772.7902   -5732.3039   -3043.6289   -4585.0097 
     186    -4585.353      13.4833      13.4833      13.4833            0            0            0       304586     310076.2    314293.44    289388.35    2903.7389   -5509.7646   -3331.6636    -4585.353 
     187   -4585.7948      13.4833      13.4833      13.4833            0            0            0    304658.87     310931.9    314839.18    288205.53    3347.9149   -5193.0496   -2859.5371   -4585.7948 
     188   -4586.1036      13.4833      13.4833      13.4833            0            0            0     304230.6    310496.78    314398.34    287796.68    3351.8893   -4904.1024   -2658.2205   -4586.1036 
     189   -4586.3979      13.4833      13.4833      13.4833            0            0            0    303939.35    310169.48    314330.47    287318.11    3731.8092   -4375.0233   -2368.4754   -4586.3979 
     190   -4586.7601      13.4833      13.4833      13.4833            0            0            0    303126.68    309760.75    313438.55    286180.75    4154.8075   -4135.0082   -2287.4991   -4586.7601 
     191   -4587.0927      13.4833      13.4833      13.4833            0            0            0    302408.38    309307.34    312385.59     285532.2    4202.6045   -4024.2293   -2224.9798   -4587.0927 
     192    -4587.462      13.4833      13.4833      13.4833            0            0            0    301780.61    308704.25     311449.7    285187.88    4044.3226   -3706.9004   -2095.6817    -4587.462 
     193    -4587.816      13.4833      13.4833      13.4833            0            0            0    301016.86    308005.76    310473.04    284571.77    4047.4513   -3499.0647   -2149.1284    -4587.816 
     194   -4588.1539      13.4833      13.4833      13.4833            0            0            0     300143.7    307224.54    309422.59    283783.97    4118.8361   -3356.5734   -2430.2531   -4588.1539 
     195   -4588.4682      13.4833      13.4833      13.4833            0            0            0    299393.59    306704.34    308142.04     283334.4    4173.5125   -3160.7848   -2489.4077   -4588.4682 
     196   -4588.7247      13.4833      13.4833      13.4833            0            0            0    298839.52    306045.21    307578.03    282895.33    3972.6522   -2776.4965   -2549.2668   -4588.7247 
     197    -4588.957      13.4833      13.4833      13.4833            0            0            0     298096.7    305567.39    306424.45    282298.26     4050.142    -2325.539   -2666.7637    -4588.957 
     198   -4589.0331      13.4833      13.4833      13.4833            0            0            0    297792.75    305380.67    306057.38    281940.21    3997.6254   -2476.0297   -2714.5438   -4589.0331 
     199   -4589.3106      13.4833      13.4833      13.4833            0            0            0    296888.29    304781.02    305274.21    280609.66    3784.6388   -2382.5431    -2941.351   -4589.3106 
     200   -4589.5718      13.4833      13.4833      13.4833            0            0            0     295722.3    303991.64    303891.48    279283.78    3438.6398   -2133.0244   -3446.1161   -4589.5718 
     201   -4589.8782      13.4833      13.4833      13.4833            0            0            0    294758.91    303292.37    302608.57     278375.8    3183.1519   -2254.7346   -3454.8676   -4589.8782 
     202   -4590.1217      13.4833      13.4833      13.4833            0            0            0    294472.81    303040.89    302155.15    278222.39     3054.732   -2677.6965   -3012.8394   -4590.1217 
     203   -4590.4409      13.4833      13.4833      13.4833            0            0            0    293857.37    302843.53    301035.95    277692.63    2799.6828   -2986.7286   -2826.1853   -4590.4409 
     204   -4590.8315      13.4833      13.4833      13.4833            0            0            0    293048.37    302440.93    299841.75    276862.44    2598.3522   -2944.1171   -3066.5081   -4590.8315 
     205    -4591.235      13.4833      13.4833      13.4833            0            0            0    292629.79    302219.24    299097.06    276573.06    2427.1072    -3007.509   -3002.1413    -4591.235 
     206   -4591.5486      13.4833      13.4833      13.4833            0            0            0    292724.62    302553.93    298726.63     276893.3    2292.8185   -3196.9654    -2567.801   -4591.5486 
     207   -4591.9523      13.4833      13.4833      13.4833            0            0            0    292539.37     302803.6    297841.04    276973.47    2287.5091   -3173.5499   -2366.4681   -4591.9523 
     208    -4592.215      13.4833      13.4833      13.4833            0            0            0    292081.54    302467.59    297115.11    276661.93    2319.5903    -2997.849   -2628.5836    -4592.215 
     209    -4592.725      13.4833      13.4833      13.4833            0            0            0     292023.5    302401.15    296392.67    277276.69    2342.1502   -2771.5094   -2681.8493    -4592.725 
     210   -4593.0182      13.4833      13.4833      13.4833            0            0            0    292457.58    302823.76    296214.33    278334.66    1968.3451   -2898.7205   -2269.1894   -4593.0182 
     211   -4593.5175      13.4833      13.4833      13.4833            0            0            0    292451.34    302561.58    295480.56    279311.88    1548.2672   -2872.8191   -2280.4904   -4593.5175 
     212   -4593.8742      13.4833      13.4833      13.4833            0            0            0    291781.79     301734.2    294743.59    278867.57    1493.1503    -2598.609   -2804.4735   -4593.8742 
     213   -4594.3933      13.4833      13.4833      13.4833            0            0            0    291519.66    301036.58    294441.96    279080.45    1086.9106   -2535.5419   -2972.1606   -4594.3933 
     214   -4594.9575      13.4833      13.4833      13.4833            0            0            0    291643.27    300922.12    294479.44    279528.25    359.08701   -2710.6298   -2588.3961   -4594.9575 
     215   -4595.5529      13.4833      13.4833      13.4833            0            0            0     291260.8    300197.71     294101.9    279482.78   -126.88106   -2583.5148   -2729.9953   -4595.5529 
     216   -4596.0749      13.4833      13.4833      13.4833            0            0            0    290414.87       298833    293360.57    279051.06   -77.446647   -2158.1688   -3439.3366   -4596.0749 
     217   -4596.7368      13.4833      13.4833      13.4833            0            0            0    289963.38    297793.92    293052.14    279044.06   -165.17925   -1872.1267    -3694.868   -4596.7368 
     218   -4597.4462      13.4833      13.4833      13.4833            0            0            0    289934.26    297478.09    292972.03    279352.67   -805.26558   -1763.4551    -3312.902   -4597.4462 
     219   -4598.4517      13.4833      13.4833      13.4833            0            0            0    288953.91    295697.32    291860.86    279303.55   -980.95132    -1054.866   -3659.8672   -4598.4517 
     220   -4599.5537      13.4833      13.4833      13.4833            0            0            0    287276.07    292866.71    289892.62    279068.89    21.989274   -300.55902   -4245.0438   -4599.5537 
     221   -4600.4362      13.4833      13.4833      13.4833            0            0            0    286577.39    291177.65    289021.95    279532.57    664.38426    368.68935   -4001.5589   -4600.4362 
     222    -4601.304      13.4833      13.4833      13.4833            0            0            0    286263.63    290399.77    288630.55    279760.58    338.77688    819.53042   -3429.4596    -4601.304 
     223   -4601.8958      13.4833      13.4833      13.4833            0            0            0    285700.21    289160.95    287874.63    280065.07    700.81968     1179.265   -3209.9891   -4601.8958 
     224   -4602.5477      13.4833      13.4833      13.4833            0            0            0    284794.12    287610.21    286698.77    280073.38    1416.5479    1283.3003   -3099.5123   -4602.5477 
     225   -4603.1086      13.4833      13.4833      13.4833            0            0            0     284161.8    286425.67    285882.65    280177.09    1620.8736    1478.1446    -2846.527   -4603.1086 
     226   -4603.6318      13.4833      13.4833      13.4833            0            0            0    283545.57     285294.5    285114.36    280227.87     1689.769    1691.8113   -2588.8251   -4603.6318 
     227   -4604.1185      13.4833      13.4833      13.4833            0            0            0    282899.35    284142.99    284325.45    280229.62    1949.9756    1809.4461   -2407.5728   -4604.1185 
     228   -4604.5545      13.4833      13.4833      13.4833            0            0            0    282340.96    283137.96    283645.69    280239.24    2038.7671    1946.8963   -2199.0416   -4604.5545 
     229   -4604.9312      13.4833      13.4833      13.4833            0            0            0    281846.88    282225.15    283050.62    280264.88    2305.1713    2022.8744   -2161.2136   -4604.9312 
     230   -4605.1672      13.4833      13.4833      13.4833            0            0            0    281546.13    281617.83    282583.62    280436.95    2212.9665    2096.9863   -1949.6423   -4605.1672 
     231   -4605.4371      13.4833      13.4833      13.4833            0            0            0    281189.36    280989.53    282102.22    280476.31    2577.3693    2147.9821   -2217.4055   -4605.4371 
     232   -4605.4815      13.4833      13.4833      13.4833            0            0            0    281133.86    280934.84    281995.76    280470.97    2610.6215    2122.9797   -2217.5652   -4605.4815 
     233   -4605.5591      13.4833      13.4833      13.4833            0            0            0    280997.32    280838.49    281588.24    280565.24    2698.2782    2266.6608   -2440.0469   -4605.5591 
     234    -4605.599      13.4833      13.4833      13.4833            0            0            0    280951.53    280811.65    281375.61    280667.32    2557.3761    2322.3706   -2397.3037    -4605.599 
     235   -4605.6218      13.4833      13.4833      13.4833            0            0            0    280925.74    280781.75    281240.89    280754.58    2582.7654    2412.4793   -2506.5989   -4605.6218 
     236   -4605.6328      13.4833      13.4833      13.4833            0            0            0    280944.86    280807.94    281194.27    280832.36    2560.2632    2429.5184   -2526.0865   -4605.6328 
     237   -4605.6366      13.4833      13.4833      13.4833            0            0            0    280945.27    280833.33    281150.22    280852.25    2561.6863     2472.983   -2552.6631   -4605.6366 
     238   -4605.6391      13.4833      13.4833      13.4833            0            0            0    280966.86    280875.98    281123.58    280901.04    2525.7124    2470.7801   -2533.6412   -4605.6391 
     239   -4605.6406      13.4833      13.4833      13.4833            0            0            0    280978.78    280912.11    281098.17    280926.07     2526.708    2503.1883   -2540.9678   -4605.6406 
     240   -4605.6416      13.4833      13.4833      13.4833            0            0            0    280984.82    280941.93    281067.43     280945.1    2520.1157    2504.5016   -2531.5236   -4605.6416 
     241   -4605.6421      13.4833      13.4833      13.4833            0            0            0    280984.66    280949.23    281048.38    280956.36    2520.9735    2518.4723   -2529.8274   -4605.6421 
     242   -4605.6423      13.4833      13.4833      13.4833            0            0            0     280990.3    280959.51    281040.83    280970.57    2517.3541    2519.7266   -2518.3095   -4605.6423 
     243   -4605.6424      13.4833      13.4833      13.4833            0            0            0    280987.22    280964.85    281025.99    280970.83    2522.6667    2520.7674   -2522.8242   -4605.6424 
     244   -4605.6424      13.4833      13.4833      13.4833            0            0            0    280985.46    280970.53    281012.29    280973.58     2519.282    2517.3262    -2524.178   -4605.6424 
     245   -4605.6425      13.4833      13.4833      13.4833            0            0            0    280983.25    280972.93    281001.34    280975.47    2521.8363    2520.0682   -2524.9274   -4605.6425 
     246   -4605.6425      13.4833      13.4833      13.4833            0            0            0    280983.05    280975.82    280994.91    280978.41    2521.4911     2518.445    -2524.033   -4605.6425 
     247   -4605.6425      13.4833      13.4833      13.4833            0            0            0    280981.81    280977.26    280990.15    280978.01    2519.8946    2518.5434   -2521.5951   -4605.6425 
     248   -4605.6425      13.4833      13.4833      13.4833            0            0            0    280981.31    280978.08     280987.4    280978.44    2519.2933    2519.2515   -2520.7865   -4605.6425 
     249   -4605.6425      13.4833      13.4833      13.4833            0            0            0    280981.31    280978.08     280987.4    280978.44    2519.2933    2519.2515   -2520.7865   -4605.6425 
Loop time of 3.32111 on 1 procs for 249 steps with 214 atoms

Minimization stats:
  Stopping criterion = linesearch alpha is zero
  Energy initial, next-to-last, final = 
        -4464.29630308      -4605.6424972      -4605.6424972
  Force two-norm initial, final = 56.6548 0.0132903
  Force max component initial, final = 10.3338 0.00170263
  Final line search alpha, max atom move = 6.10352e-05 1.0392e-07
  Iterations, force evaluations = 249 418

Pair  time (%) = 1.48995 (44.8631)
Kspce time (%) = 1.68551 (50.7513)
Neigh time (%) = 0.104389 (3.1432)
Comm  time (%) = 0.0187809 (0.565502)
Outpt time (%) = 0.0117486 (0.353754)
Other time (%) = 0.0107298 (0.323079)

Nlocal:    214 ave 214 max 214 min
Histogram: 1 0 0 0 0 0 0 0 0 0
Nghost:    3837 ave 3837 max 3837 min
Histogram: 1 0 0 0 0 0 0 0 0 0
Neighs:    50156 ave 50156 max 50156 min
Histogram: 1 0 0 0 0 0 0 0 0 0

Total # of neighbors = 50156
Ave neighs/atom = 234.374
Neighbor list builds = 32
Dangerous builds = 0
pyPosMat output section
tot_energy = -4605.64249719705
num_atoms = 214
xx = 13.4833
yy = 13.4833
zz = 13.4833
xy = 0
xz = 0
yz = 0
pressure_total = 280981.306369683
press_xx = 280978.082901787
press_yy = 280987.396591697
press_zz = 280978.439615564
press_xy = 2519.29329000588
press_xz = 2519.25150394642
press_yz = -2520.78645620887
ecoh = -21.5216939121357
lammps_sim_done
