# ['Ni']

256 atoms
1 atom types

    0.0000    14.0720 xlo xhi
    0.0000    14.0720 ylo yhi
    0.0000    14.0720 zlo zhi

    0.0000     0.0000     0.0000 xy xz yz

Atoms

1 1     0.0000     0.0000     0.0000
2 1     1.7590     1.7590     0.0000
3 1     1.7590     0.0000     1.7590
4 1     0.0000     1.7590     1.7590
5 1     0.0000     0.0000     3.5180
6 1     1.7590     1.7590     3.5180
7 1     1.7590     0.0000     5.2770
8 1     0.0000     1.7590     5.2770
9 1     0.0000     0.0000     7.0360
10 1     1.7590     1.7590     7.0360
11 1     1.7590     0.0000     8.7950
12 1     0.0000     1.7590     8.7950
13 1     0.0000     0.0000    10.5540
14 1     1.7590     1.7590    10.5540
15 1     1.7590     0.0000    12.3130
16 1     0.0000     1.7590    12.3130
17 1     0.0000     3.5180     0.0000
18 1     1.7590     5.2770     0.0000
19 1     1.7590     3.5180     1.7590
20 1     0.0000     5.2770     1.7590
21 1     0.0000     3.5180     3.5180
22 1     1.7590     5.2770     3.5180
23 1     1.7590     3.5180     5.2770
24 1     0.0000     5.2770     5.2770
25 1     0.0000     3.5180     7.0360
26 1     1.7590     5.2770     7.0360
27 1     1.7590     3.5180     8.7950
28 1     0.0000     5.2770     8.7950
29 1     0.0000     3.5180    10.5540
30 1     1.7590     5.2770    10.5540
31 1     1.7590     3.5180    12.3130
32 1     0.0000     5.2770    12.3130
33 1     0.0000     7.0360     0.0000
34 1     1.7590     8.7950     0.0000
35 1     1.7590     7.0360     1.7590
36 1     0.0000     8.7950     1.7590
37 1     0.0000     7.0360     3.5180
38 1     1.7590     8.7950     3.5180
39 1     1.7590     7.0360     5.2770
40 1     0.0000     8.7950     5.2770
41 1     0.0000     7.0360     7.0360
42 1     1.7590     8.7950     7.0360
43 1     1.7590     7.0360     8.7950
44 1     0.0000     8.7950     8.7950
45 1     0.0000     7.0360    10.5540
46 1     1.7590     8.7950    10.5540
47 1     1.7590     7.0360    12.3130
48 1     0.0000     8.7950    12.3130
49 1     0.0000    10.5540     0.0000
50 1     1.7590    12.3130     0.0000
51 1     1.7590    10.5540     1.7590
52 1     0.0000    12.3130     1.7590
53 1     0.0000    10.5540     3.5180
54 1     1.7590    12.3130     3.5180
55 1     1.7590    10.5540     5.2770
56 1     0.0000    12.3130     5.2770
57 1     0.0000    10.5540     7.0360
58 1     1.7590    12.3130     7.0360
59 1     1.7590    10.5540     8.7950
60 1     0.0000    12.3130     8.7950
61 1     0.0000    10.5540    10.5540
62 1     1.7590    12.3130    10.5540
63 1     1.7590    10.5540    12.3130
64 1     0.0000    12.3130    12.3130
65 1     3.5180     0.0000     0.0000
66 1     5.2770     1.7590     0.0000
67 1     5.2770     0.0000     1.7590
68 1     3.5180     1.7590     1.7590
69 1     3.5180     0.0000     3.5180
70 1     5.2770     1.7590     3.5180
71 1     5.2770     0.0000     5.2770
72 1     3.5180     1.7590     5.2770
73 1     3.5180     0.0000     7.0360
74 1     5.2770     1.7590     7.0360
75 1     5.2770     0.0000     8.7950
76 1     3.5180     1.7590     8.7950
77 1     3.5180     0.0000    10.5540
78 1     5.2770     1.7590    10.5540
79 1     5.2770     0.0000    12.3130
80 1     3.5180     1.7590    12.3130
81 1     3.5180     3.5180     0.0000
82 1     5.2770     5.2770     0.0000
83 1     5.2770     3.5180     1.7590
84 1     3.5180     5.2770     1.7590
85 1     3.5180     3.5180     3.5180
86 1     5.2770     5.2770     3.5180
87 1     5.2770     3.5180     5.2770
88 1     3.5180     5.2770     5.2770
89 1     3.5180     3.5180     7.0360
90 1     5.2770     5.2770     7.0360
91 1     5.2770     3.5180     8.7950
92 1     3.5180     5.2770     8.7950
93 1     3.5180     3.5180    10.5540
94 1     5.2770     5.2770    10.5540
95 1     5.2770     3.5180    12.3130
96 1     3.5180     5.2770    12.3130
97 1     3.5180     7.0360     0.0000
98 1     5.2770     8.7950     0.0000
99 1     5.2770     7.0360     1.7590
100 1     3.5180     8.7950     1.7590
101 1     3.5180     7.0360     3.5180
102 1     5.2770     8.7950     3.5180
103 1     5.2770     7.0360     5.2770
104 1     3.5180     8.7950     5.2770
105 1     3.5180     7.0360     7.0360
106 1     5.2770     8.7950     7.0360
107 1     5.2770     7.0360     8.7950
108 1     3.5180     8.7950     8.7950
109 1     3.5180     7.0360    10.5540
110 1     5.2770     8.7950    10.5540
111 1     5.2770     7.0360    12.3130
112 1     3.5180     8.7950    12.3130
113 1     3.5180    10.5540     0.0000
114 1     5.2770    12.3130     0.0000
115 1     5.2770    10.5540     1.7590
116 1     3.5180    12.3130     1.7590
117 1     3.5180    10.5540     3.5180
118 1     5.2770    12.3130     3.5180
119 1     5.2770    10.5540     5.2770
120 1     3.5180    12.3130     5.2770
121 1     3.5180    10.5540     7.0360
122 1     5.2770    12.3130     7.0360
123 1     5.2770    10.5540     8.7950
124 1     3.5180    12.3130     8.7950
125 1     3.5180    10.5540    10.5540
126 1     5.2770    12.3130    10.5540
127 1     5.2770    10.5540    12.3130
128 1     3.5180    12.3130    12.3130
129 1     7.0360     0.0000     0.0000
130 1     8.7950     1.7590     0.0000
131 1     8.7950     0.0000     1.7590
132 1     7.0360     1.7590     1.7590
133 1     7.0360     0.0000     3.5180
134 1     8.7950     1.7590     3.5180
135 1     8.7950     0.0000     5.2770
136 1     7.0360     1.7590     5.2770
137 1     7.0360     0.0000     7.0360
138 1     8.7950     1.7590     7.0360
139 1     8.7950     0.0000     8.7950
140 1     7.0360     1.7590     8.7950
141 1     7.0360     0.0000    10.5540
142 1     8.7950     1.7590    10.5540
143 1     8.7950     0.0000    12.3130
144 1     7.0360     1.7590    12.3130
145 1     7.0360     3.5180     0.0000
146 1     8.7950     5.2770     0.0000
147 1     8.7950     3.5180     1.7590
148 1     7.0360     5.2770     1.7590
149 1     7.0360     3.5180     3.5180
150 1     8.7950     5.2770     3.5180
151 1     8.7950     3.5180     5.2770
152 1     7.0360     5.2770     5.2770
153 1     7.0360     3.5180     7.0360
154 1     8.7950     5.2770     7.0360
155 1     8.7950     3.5180     8.7950
156 1     7.0360     5.2770     8.7950
157 1     7.0360     3.5180    10.5540
158 1     8.7950     5.2770    10.5540
159 1     8.7950     3.5180    12.3130
160 1     7.0360     5.2770    12.3130
161 1     7.0360     7.0360     0.0000
162 1     8.7950     8.7950     0.0000
163 1     8.7950     7.0360     1.7590
164 1     7.0360     8.7950     1.7590
165 1     7.0360     7.0360     3.5180
166 1     8.7950     8.7950     3.5180
167 1     8.7950     7.0360     5.2770
168 1     7.0360     8.7950     5.2770
169 1     7.0360     7.0360     7.0360
170 1     8.7950     8.7950     7.0360
171 1     8.7950     7.0360     8.7950
172 1     7.0360     8.7950     8.7950
173 1     7.0360     7.0360    10.5540
174 1     8.7950     8.7950    10.5540
175 1     8.7950     7.0360    12.3130
176 1     7.0360     8.7950    12.3130
177 1     7.0360    10.5540     0.0000
178 1     8.7950    12.3130     0.0000
179 1     8.7950    10.5540     1.7590
180 1     7.0360    12.3130     1.7590
181 1     7.0360    10.5540     3.5180
182 1     8.7950    12.3130     3.5180
183 1     8.7950    10.5540     5.2770
184 1     7.0360    12.3130     5.2770
185 1     7.0360    10.5540     7.0360
186 1     8.7950    12.3130     7.0360
187 1     8.7950    10.5540     8.7950
188 1     7.0360    12.3130     8.7950
189 1     7.0360    10.5540    10.5540
190 1     8.7950    12.3130    10.5540
191 1     8.7950    10.5540    12.3130
192 1     7.0360    12.3130    12.3130
193 1    10.5540     0.0000     0.0000
194 1    12.3130     1.7590     0.0000
195 1    12.3130     0.0000     1.7590
196 1    10.5540     1.7590     1.7590
197 1    10.5540     0.0000     3.5180
198 1    12.3130     1.7590     3.5180
199 1    12.3130     0.0000     5.2770
200 1    10.5540     1.7590     5.2770
201 1    10.5540     0.0000     7.0360
202 1    12.3130     1.7590     7.0360
203 1    12.3130     0.0000     8.7950
204 1    10.5540     1.7590     8.7950
205 1    10.5540     0.0000    10.5540
206 1    12.3130     1.7590    10.5540
207 1    12.3130     0.0000    12.3130
208 1    10.5540     1.7590    12.3130
209 1    10.5540     3.5180     0.0000
210 1    12.3130     5.2770     0.0000
211 1    12.3130     3.5180     1.7590
212 1    10.5540     5.2770     1.7590
213 1    10.5540     3.5180     3.5180
214 1    12.3130     5.2770     3.5180
215 1    12.3130     3.5180     5.2770
216 1    10.5540     5.2770     5.2770
217 1    10.5540     3.5180     7.0360
218 1    12.3130     5.2770     7.0360
219 1    12.3130     3.5180     8.7950
220 1    10.5540     5.2770     8.7950
221 1    10.5540     3.5180    10.5540
222 1    12.3130     5.2770    10.5540
223 1    12.3130     3.5180    12.3130
224 1    10.5540     5.2770    12.3130
225 1    10.5540     7.0360     0.0000
226 1    12.3130     8.7950     0.0000
227 1    12.3130     7.0360     1.7590
228 1    10.5540     8.7950     1.7590
229 1    10.5540     7.0360     3.5180
230 1    12.3130     8.7950     3.5180
231 1    12.3130     7.0360     5.2770
232 1    10.5540     8.7950     5.2770
233 1    10.5540     7.0360     7.0360
234 1    12.3130     8.7950     7.0360
235 1    12.3130     7.0360     8.7950
236 1    10.5540     8.7950     8.7950
237 1    10.5540     7.0360    10.5540
238 1    12.3130     8.7950    10.5540
239 1    12.3130     7.0360    12.3130
240 1    10.5540     8.7950    12.3130
241 1    10.5540    10.5540     0.0000
242 1    12.3130    12.3130     0.0000
243 1    12.3130    10.5540     1.7590
244 1    10.5540    12.3130     1.7590
245 1    10.5540    10.5540     3.5180
246 1    12.3130    12.3130     3.5180
247 1    12.3130    10.5540     5.2770
248 1    10.5540    12.3130     5.2770
249 1    10.5540    10.5540     7.0360
250 1    12.3130    12.3130     7.0360
251 1    12.3130    10.5540     8.7950
252 1    10.5540    12.3130     8.7950
253 1    10.5540    10.5540    10.5540
254 1    12.3130    12.3130    10.5540
255 1    12.3130    10.5540    12.3130
256 1    10.5540    12.3130    12.3130
