 running on   24 total cores
 distrk:  each k-point on   24 cores,    1 groups
 distr:  one band on    1 cores,   24 groups
 using from now: INCAR     
 vasp.5.3.5 31Mar14 (build Sep 13 2016 13:59:23) complex                        
  
 POSCAR found type information on POSCAR  Mg O 
 POSCAR found :  2 types and       8 ions
 scaLAPACK will be used

 ----------------------------------------------------------------------------- 
|                                                                             |
|           W    W    AA    RRRRR   N    N  II  N    N   GGGG   !!!           |
|           W    W   A  A   R    R  NN   N  II  NN   N  G    G  !!!           |
|           W    W  A    A  R    R  N N  N  II  N N  N  G       !!!           |
|           W WW W  AAAAAA  RRRRR   N  N N  II  N  N N  G  GGG   !            |
|           WW  WW  A    A  R   R   N   NN  II  N   NN  G    G                |
|           W    W  A    A  R    R  N    N  II  N    N   GGGG   !!!           |
|                                                                             |
|      For optimal performance we recommend to set                            |
|        NCORE= 4 - approx SQRT( number of cores)                             |
|      NCORE specifies how many cores store one orbital (NPAR=cpu/NCORE).     |
|      This setting can  greatly improve the performance of VASP for DFT.     |
|      The default, NPAR=number of cores might be grossly inefficient         |
|      on modern multi-core architectures or massively parallel machines.     |
|      Do your own testing !!!!                                               |
|      Unfortunately you need to use the default for GW and RPA calculations. |
|      (for HF NCORE is supported but not extensively tested yet)             |
|                                                                             |
 ----------------------------------------------------------------------------- 

 LDA part: xc-table for Ceperly-Alder, standard interpolation
 POSCAR, INCAR and KPOINTS ok, starting setup
 FFT: planning ...
 WAVECAR not read
 entering main loop
       N       E                     dE             d eps       ncg     rms          rms(c)
DAV:   1     0.581184791891E+02    0.58118E+02   -0.17772E+04   216   0.117E+03
DAV:   2    -0.581614625500E+02   -0.11628E+03   -0.10816E+03   264   0.176E+02
DAV:   3    -0.597804676139E+02   -0.16190E+01   -0.16190E+01   240   0.261E+01
DAV:   4    -0.597840705460E+02   -0.36029E-02   -0.36029E-02   312   0.119E+00
DAV:   5    -0.597840707315E+02   -0.18543E-06   -0.18543E-06   216   0.845E-03    0.140E+01
RMM:   6    -0.537696780792E+02    0.60144E+01   -0.22443E+01   192   0.237E+01    0.460E+00
RMM:   7    -0.535741751711E+02    0.19550E+00   -0.15420E-01   192   0.267E+00    0.268E+00
RMM:   8    -0.534827163690E+02    0.91459E-01   -0.18029E-01   192   0.372E+00    0.565E-01
RMM:   9    -0.534813764793E+02    0.13399E-02   -0.89858E-02   192   0.149E+00    0.468E-01
RMM:  10    -0.534756888472E+02    0.56876E-02   -0.13357E-02   192   0.588E-01    0.778E-02
RMM:  11    -0.534756141632E+02    0.74684E-04   -0.61773E-04   192   0.135E-01    0.477E-03
RMM:  12    -0.534756144668E+02   -0.30364E-06   -0.43912E-06   192   0.124E-02    0.228E-03
RMM:  13    -0.534756143652E+02    0.10162E-06   -0.63068E-07   187   0.296E-03    0.292E-04
RMM:  14    -0.534756143836E+02   -0.18427E-07   -0.76006E-08   167   0.152E-03    0.919E-04
RMM:  15    -0.534756143648E+02    0.18813E-07   -0.80147E-08   169   0.148E-03    0.584E-05
RMM:  16    -0.534756143648E+02    0.34561E-10   -0.30422E-10    70   0.127E-04
   1 F= -.53475614E+02 E0= -.53475614E+02  d E =-.534756E+02
 curvature:   0.00 expect dE= 0.000E+00 dE for cont linesearch  0.000E+00
 trial: gam= 0.00000 g(F)=  0.123E-59 g(S)=  0.000E+00 ort = 0.000E+00 (trialstep = 0.100E+01)
 search vector abs. value=  0.100E-09
 reached required accuracy - stopping structural energy minimisation
 writing wavefunctions
