# ['Mg', 'O']

224 atoms
2 atom types

    0.0000     4.2565 xlo xhi
    0.0000     4.2565 ylo yhi
    0.0000     4.2565 zlo zhi

    0.0000     0.0000     0.0000 xy xz yz

Atoms

1 1     1.0000     2.1282     2.1282     0.0000
2 1     1.0000     2.1282     0.0000     2.1282
3 1     1.0000     0.0000     0.0000     0.0000
4 1     1.0000     0.0000     2.1282     2.1282
5 1     1.0000     0.7094     0.7094     0.0000
6 1     1.0000     0.7094     0.0000     0.7094
7 1     1.0000     0.0000     0.0000     0.0000
8 1     1.0000     0.0000     0.7094     0.7094
9 1     1.0000     0.7094     0.7094     1.4188
10 1     1.0000     0.7094     0.0000     2.1282
11 1     1.0000     0.0000     0.0000     1.4188
12 1     1.0000     0.0000     0.7094     2.1282
13 1     1.0000     0.7094     0.7094     2.8377
14 1     1.0000     0.7094     0.0000     3.5471
15 1     1.0000     0.0000     0.0000     2.8377
16 1     1.0000     0.0000     0.7094     3.5471
17 1     1.0000     0.7094     2.1282     0.0000
18 1     1.0000     0.7094     1.4188     0.7094
19 1     1.0000     0.0000     1.4188     0.0000
20 1     1.0000     0.0000     2.1282     0.7094
21 1     1.0000     0.7094     2.1282     1.4188
22 1     1.0000     0.7094     1.4188     2.1282
23 1     1.0000     0.0000     1.4188     1.4188
24 1     1.0000     0.0000     2.1282     2.1282
25 1     1.0000     0.7094     2.1282     2.8377
26 1     1.0000     0.7094     1.4188     3.5471
27 1     1.0000     0.0000     1.4188     2.8377
28 1     1.0000     0.0000     2.1282     3.5471
29 1     1.0000     0.7094     3.5471     0.0000
30 1     1.0000     0.7094     2.8377     0.7094
31 1     1.0000     0.0000     2.8377     0.0000
32 1     1.0000     0.0000     3.5471     0.7094
33 1     1.0000     0.7094     3.5471     1.4188
34 1     1.0000     0.7094     2.8377     2.1282
35 1     1.0000     0.0000     2.8377     1.4188
36 1     1.0000     0.0000     3.5471     2.1282
37 1     1.0000     0.7094     3.5471     2.8377
38 1     1.0000     0.7094     2.8377     3.5471
39 1     1.0000     0.0000     2.8377     2.8377
40 1     1.0000     0.0000     3.5471     3.5471
41 1     1.0000     2.1282     0.7094     0.0000
42 1     1.0000     2.1282     0.0000     0.7094
43 1     1.0000     1.4188     0.0000     0.0000
44 1     1.0000     1.4188     0.7094     0.7094
45 1     1.0000     2.1282     0.7094     1.4188
46 1     1.0000     2.1282     0.0000     2.1282
47 1     1.0000     1.4188     0.0000     1.4188
48 1     1.0000     1.4188     0.7094     2.1282
49 1     1.0000     2.1282     0.7094     2.8377
50 1     1.0000     2.1282     0.0000     3.5471
51 1     1.0000     1.4188     0.0000     2.8377
52 1     1.0000     1.4188     0.7094     3.5471
53 1     1.0000     2.1282     2.1282     0.0000
54 1     1.0000     2.1282     1.4188     0.7094
55 1     1.0000     1.4188     1.4188     0.0000
56 1     1.0000     1.4188     2.1282     0.7094
57 1     1.0000     2.1282     2.1282     1.4188
58 1     1.0000     2.1282     1.4188     2.1282
59 1     1.0000     1.4188     1.4188     1.4188
60 1     1.0000     1.4188     2.1282     2.1282
61 1     1.0000     2.1282     2.1282     2.8377
62 1     1.0000     2.1282     1.4188     3.5471
63 1     1.0000     1.4188     1.4188     2.8377
64 1     1.0000     1.4188     2.1282     3.5471
65 1     1.0000     2.1282     3.5471     0.0000
66 1     1.0000     2.1282     2.8377     0.7094
67 1     1.0000     1.4188     2.8377     0.0000
68 1     1.0000     1.4188     3.5471     0.7094
69 1     1.0000     2.1282     3.5471     1.4188
70 1     1.0000     2.1282     2.8377     2.1282
71 1     1.0000     1.4188     2.8377     1.4188
72 1     1.0000     1.4188     3.5471     2.1282
73 1     1.0000     2.1282     3.5471     2.8377
74 1     1.0000     2.1282     2.8377     3.5471
75 1     1.0000     1.4188     2.8377     2.8377
76 1     1.0000     1.4188     3.5471     3.5471
77 1     1.0000     3.5471     0.7094     0.0000
78 1     1.0000     3.5471     0.0000     0.7094
79 1     1.0000     2.8377     0.0000     0.0000
80 1     1.0000     2.8377     0.7094     0.7094
81 1     1.0000     3.5471     0.7094     1.4188
82 1     1.0000     3.5471     0.0000     2.1282
83 1     1.0000     2.8377     0.0000     1.4188
84 1     1.0000     2.8377     0.7094     2.1282
85 1     1.0000     3.5471     0.7094     2.8377
86 1     1.0000     3.5471     0.0000     3.5471
87 1     1.0000     2.8377     0.0000     2.8377
88 1     1.0000     2.8377     0.7094     3.5471
89 1     1.0000     3.5471     2.1282     0.0000
90 1     1.0000     3.5471     1.4188     0.7094
91 1     1.0000     2.8377     1.4188     0.0000
92 1     1.0000     2.8377     2.1282     0.7094
93 1     1.0000     3.5471     2.1282     1.4188
94 1     1.0000     3.5471     1.4188     2.1282
95 1     1.0000     2.8377     1.4188     1.4188
96 1     1.0000     2.8377     2.1282     2.1282
97 1     1.0000     3.5471     2.1282     2.8377
98 1     1.0000     3.5471     1.4188     3.5471
99 1     1.0000     2.8377     1.4188     2.8377
100 1     1.0000     2.8377     2.1282     3.5471
101 1     1.0000     3.5471     3.5471     0.0000
102 1     1.0000     3.5471     2.8377     0.7094
103 1     1.0000     2.8377     2.8377     0.0000
104 1     1.0000     2.8377     3.5471     0.7094
105 1     1.0000     3.5471     3.5471     1.4188
106 1     1.0000     3.5471     2.8377     2.1282
107 1     1.0000     2.8377     2.8377     1.4188
108 1     1.0000     2.8377     3.5471     2.1282
109 1     1.0000     3.5471     3.5471     2.8377
110 1     1.0000     3.5471     2.8377     3.5471
111 1     1.0000     2.8377     2.8377     2.8377
112 1     1.0000     2.8377     3.5471     3.5471
113 2     1.0000     0.0000     2.1282     0.0000
114 2     1.0000     2.1282     0.0000     0.0000
115 2     1.0000     2.1282     2.1282     2.1282
116 2     1.0000     0.0000     0.0000     2.1282
117 2     1.0000     0.0000     0.7094     0.0000
118 2     1.0000     0.7094     0.0000     0.0000
119 2     1.0000     0.7094     0.7094     0.7094
120 2     1.0000     0.0000     0.0000     0.7094
121 2     1.0000     0.0000     0.7094     1.4188
122 2     1.0000     0.7094     0.0000     1.4188
123 2     1.0000     0.7094     0.7094     2.1282
124 2     1.0000     0.0000     0.0000     2.1282
125 2     1.0000     0.0000     0.7094     2.8377
126 2     1.0000     0.7094     0.0000     2.8377
127 2     1.0000     0.7094     0.7094     3.5471
128 2     1.0000     0.0000     0.0000     3.5471
129 2     1.0000     0.0000     2.1282     0.0000
130 2     1.0000     0.7094     1.4188     0.0000
131 2     1.0000     0.7094     2.1282     0.7094
132 2     1.0000     0.0000     1.4188     0.7094
133 2     1.0000     0.0000     2.1282     1.4188
134 2     1.0000     0.7094     1.4188     1.4188
135 2     1.0000     0.7094     2.1282     2.1282
136 2     1.0000     0.0000     1.4188     2.1282
137 2     1.0000     0.0000     2.1282     2.8377
138 2     1.0000     0.7094     1.4188     2.8377
139 2     1.0000     0.7094     2.1282     3.5471
140 2     1.0000     0.0000     1.4188     3.5471
141 2     1.0000     0.0000     3.5471     0.0000
142 2     1.0000     0.7094     2.8377     0.0000
143 2     1.0000     0.7094     3.5471     0.7094
144 2     1.0000     0.0000     2.8377     0.7094
145 2     1.0000     0.0000     3.5471     1.4188
146 2     1.0000     0.7094     2.8377     1.4188
147 2     1.0000     0.7094     3.5471     2.1282
148 2     1.0000     0.0000     2.8377     2.1282
149 2     1.0000     0.0000     3.5471     2.8377
150 2     1.0000     0.7094     2.8377     2.8377
151 2     1.0000     0.7094     3.5471     3.5471
152 2     1.0000     0.0000     2.8377     3.5471
153 2     1.0000     1.4188     0.7094     0.0000
154 2     1.0000     2.1282     0.0000     0.0000
155 2     1.0000     2.1282     0.7094     0.7094
156 2     1.0000     1.4188     0.0000     0.7094
157 2     1.0000     1.4188     0.7094     1.4188
158 2     1.0000     2.1282     0.0000     1.4188
159 2     1.0000     2.1282     0.7094     2.1282
160 2     1.0000     1.4188     0.0000     2.1282
161 2     1.0000     1.4188     0.7094     2.8377
162 2     1.0000     2.1282     0.0000     2.8377
163 2     1.0000     2.1282     0.7094     3.5471
164 2     1.0000     1.4188     0.0000     3.5471
165 2     1.0000     1.4188     2.1282     0.0000
166 2     1.0000     2.1282     1.4188     0.0000
167 2     1.0000     2.1282     2.1282     0.7094
168 2     1.0000     1.4188     1.4188     0.7094
169 2     1.0000     1.4188     2.1282     1.4188
170 2     1.0000     2.1282     1.4188     1.4188
171 2     1.0000     2.1282     2.1282     2.1282
172 2     1.0000     1.4188     1.4188     2.1282
173 2     1.0000     1.4188     2.1282     2.8377
174 2     1.0000     2.1282     1.4188     2.8377
175 2     1.0000     2.1282     2.1282     3.5471
176 2     1.0000     1.4188     1.4188     3.5471
177 2     1.0000     1.4188     3.5471     0.0000
178 2     1.0000     2.1282     2.8377     0.0000
179 2     1.0000     2.1282     3.5471     0.7094
180 2     1.0000     1.4188     2.8377     0.7094
181 2     1.0000     1.4188     3.5471     1.4188
182 2     1.0000     2.1282     2.8377     1.4188
183 2     1.0000     2.1282     3.5471     2.1282
184 2     1.0000     1.4188     2.8377     2.1282
185 2     1.0000     1.4188     3.5471     2.8377
186 2     1.0000     2.1282     2.8377     2.8377
187 2     1.0000     2.1282     3.5471     3.5471
188 2     1.0000     1.4188     2.8377     3.5471
189 2     1.0000     2.8377     0.7094     0.0000
190 2     1.0000     3.5471     0.0000     0.0000
191 2     1.0000     3.5471     0.7094     0.7094
192 2     1.0000     2.8377     0.0000     0.7094
193 2     1.0000     2.8377     0.7094     1.4188
194 2     1.0000     3.5471     0.0000     1.4188
195 2     1.0000     3.5471     0.7094     2.1282
196 2     1.0000     2.8377     0.0000     2.1282
197 2     1.0000     2.8377     0.7094     2.8377
198 2     1.0000     3.5471     0.0000     2.8377
199 2     1.0000     3.5471     0.7094     3.5471
200 2     1.0000     2.8377     0.0000     3.5471
201 2     1.0000     2.8377     2.1282     0.0000
202 2     1.0000     3.5471     1.4188     0.0000
203 2     1.0000     3.5471     2.1282     0.7094
204 2     1.0000     2.8377     1.4188     0.7094
205 2     1.0000     2.8377     2.1282     1.4188
206 2     1.0000     3.5471     1.4188     1.4188
207 2     1.0000     3.5471     2.1282     2.1282
208 2     1.0000     2.8377     1.4188     2.1282
209 2     1.0000     2.8377     2.1282     2.8377
210 2     1.0000     3.5471     1.4188     2.8377
211 2     1.0000     3.5471     2.1282     3.5471
212 2     1.0000     2.8377     1.4188     3.5471
213 2     1.0000     2.8377     3.5471     0.0000
214 2     1.0000     3.5471     2.8377     0.0000
215 2     1.0000     3.5471     3.5471     0.7094
216 2     1.0000     2.8377     2.8377     0.7094
217 2     1.0000     2.8377     3.5471     1.4188
218 2     1.0000     3.5471     2.8377     1.4188
219 2     1.0000     3.5471     3.5471     2.1282
220 2     1.0000     2.8377     2.8377     2.1282
221 2     1.0000     2.8377     3.5471     2.8377
222 2     1.0000     3.5471     2.8377     2.8377
223 2     1.0000     3.5471     3.5471     3.5471
224 2     1.0000     2.8377     2.8377     3.5471
