# ['Mg', 'O']

40 atoms
2 atom types

    0.0000     4.1913 xlo xhi
    0.0000     4.1913 ylo yhi
    0.0000    41.9132 zlo zhi

    0.0000     0.0000     0.0000 xy xz yz

Atoms

1 1     1.0000     2.0957     2.0957     0.0000
2 1     1.0000     2.0957     0.0000     2.0957
3 1     1.0000     0.0000     0.0000     0.0000
4 1     1.0000     0.0000     2.0957     2.0957
5 1     1.0000     2.0957     2.0957     4.1913
6 1     1.0000     2.0957     0.0000     6.2870
7 1     1.0000     0.0000     0.0000     4.1913
8 1     1.0000     0.0000     2.0957     6.2870
9 1     1.0000     2.0957     2.0957     8.3826
10 1     1.0000     2.0957     0.0000    10.4783
11 1     1.0000     0.0000     0.0000     8.3826
12 1     1.0000     0.0000     2.0957    10.4783
13 1     1.0000     2.0957     2.0957    12.5740
14 1     1.0000     2.0957     0.0000    14.6696
15 1     1.0000     0.0000     0.0000    12.5740
16 1     1.0000     0.0000     2.0957    14.6696
17 1     1.0000     2.0957     2.0957    16.7653
18 1     1.0000     2.0957     0.0000    18.8609
19 1     1.0000     0.0000     0.0000    16.7653
20 1     1.0000     0.0000     2.0957    18.8609
21 2     1.0000     0.0000     2.0957     0.0000
22 2     1.0000     2.0957     0.0000     0.0000
23 2     1.0000     2.0957     2.0957     2.0957
24 2     1.0000     0.0000     0.0000     2.0957
25 2     1.0000     0.0000     2.0957     4.1913
26 2     1.0000     2.0957     0.0000     4.1913
27 2     1.0000     2.0957     2.0957     6.2870
28 2     1.0000     0.0000     0.0000     6.2870
29 2     1.0000     0.0000     2.0957     8.3826
30 2     1.0000     2.0957     0.0000     8.3826
31 2     1.0000     2.0957     2.0957    10.4783
32 2     1.0000     0.0000     0.0000    10.4783
33 2     1.0000     0.0000     2.0957    12.5740
34 2     1.0000     2.0957     0.0000    12.5740
35 2     1.0000     2.0957     2.0957    14.6696
36 2     1.0000     0.0000     0.0000    14.6696
37 2     1.0000     0.0000     2.0957    16.7653
38 2     1.0000     2.0957     0.0000    16.7653
39 2     1.0000     2.0957     2.0957    18.8609
40 2     1.0000     0.0000     0.0000    18.8609
