# ['Mg', 'O']

8 atoms
2 atom types

    0.0000     4.1913 xlo xhi
    0.0000     4.1913 ylo yhi
    0.0000     4.1913 zlo zhi

    0.0000     0.0000     0.0000 xy xz yz

Atoms

1 1     1.0000     2.0957     2.0957     0.0000
2 1     1.0000     2.0957     0.0000     2.0957
3 1     1.0000     0.0000     0.0000     0.0000
4 1     1.0000     0.0000     2.0957     2.0957
5 2     1.0000     0.0000     2.0957     0.0000
6 2     1.0000     2.0957     0.0000     0.0000
7 2     1.0000     2.0957     2.0957     2.0957
8 2     1.0000     0.0000     0.0000     2.0957
