# ['Mg', 'O']

216 atoms
2 atom types

    0.0000    12.7694 xlo xhi
    0.0000    12.7694 ylo yhi
    0.0000    12.7694 zlo zhi

    0.0000     0.0000     0.0000 xy xz yz

Atoms

1 1     0.0000     2.1282     0.0000
2 1     2.1282     0.0000     0.0000
3 1     2.1282     2.1282     2.1282
4 1     0.0000     0.0000     2.1282
5 1     0.0000     2.1282     4.2565
6 1     2.1282     0.0000     4.2565
7 1     2.1282     2.1282     6.3847
8 1     0.0000     0.0000     6.3847
9 1     0.0000     2.1282     8.5130
10 1     2.1282     0.0000     8.5130
11 1     2.1282     2.1282    10.6412
12 1     0.0000     0.0000    10.6412
13 1     0.0000     6.3847     0.0000
14 1     2.1282     4.2565     0.0000
15 1     2.1282     6.3847     2.1282
16 1     0.0000     4.2565     2.1282
17 1     0.0000     6.3847     4.2565
18 1     2.1282     4.2565     4.2565
19 1     2.1282     6.3847     6.3847
20 1     0.0000     4.2565     6.3847
21 1     0.0000     6.3847     8.5130
22 1     2.1282     4.2565     8.5130
23 1     2.1282     6.3847    10.6412
24 1     0.0000     4.2565    10.6412
25 1     0.0000    10.6412     0.0000
26 1     2.1282     8.5130     0.0000
27 1     2.1282    10.6412     2.1282
28 1     0.0000     8.5130     2.1282
29 1     0.0000    10.6412     4.2565
30 1     2.1282     8.5130     4.2565
31 1     2.1282    10.6412     6.3847
32 1     0.0000     8.5130     6.3847
33 1     0.0000    10.6412     8.5130
34 1     2.1282     8.5130     8.5130
35 1     2.1282    10.6412    10.6412
36 1     0.0000     8.5130    10.6412
37 1     4.2565     2.1282     0.0000
38 1     6.3847     0.0000     0.0000
39 1     6.3847     2.1282     2.1282
40 1     4.2565     0.0000     2.1282
41 1     4.2565     2.1282     4.2565
42 1     6.3847     0.0000     4.2565
43 1     6.3847     2.1282     6.3847
44 1     4.2565     0.0000     6.3847
45 1     4.2565     2.1282     8.5130
46 1     6.3847     0.0000     8.5130
47 1     6.3847     2.1282    10.6412
48 1     4.2565     0.0000    10.6412
49 1     4.2565     6.3847     0.0000
50 1     6.3847     4.2565     0.0000
51 1     6.3847     6.3847     2.1282
52 1     4.2565     4.2565     2.1282
53 1     4.2565     6.3847     4.2565
54 1     6.3847     4.2565     4.2565
55 1     6.3847     6.3847     6.3847
56 1     4.2565     4.2565     6.3847
57 1     4.2565     6.3847     8.5130
58 1     6.3847     4.2565     8.5130
59 1     6.3847     6.3847    10.6412
60 1     4.2565     4.2565    10.6412
61 1     4.2565    10.6412     0.0000
62 1     6.3847     8.5130     0.0000
63 1     6.3847    10.6412     2.1282
64 1     4.2565     8.5130     2.1282
65 1     4.2565    10.6412     4.2565
66 1     6.3847     8.5130     4.2565
67 1     6.3847    10.6412     6.3847
68 1     4.2565     8.5130     6.3847
69 1     4.2565    10.6412     8.5130
70 1     6.3847     8.5130     8.5130
71 1     6.3847    10.6412    10.6412
72 1     4.2565     8.5130    10.6412
73 1     8.5130     2.1282     0.0000
74 1    10.6412     0.0000     0.0000
75 1    10.6412     2.1282     2.1282
76 1     8.5130     0.0000     2.1282
77 1     8.5130     2.1282     4.2565
78 1    10.6412     0.0000     4.2565
79 1    10.6412     2.1282     6.3847
80 1     8.5130     0.0000     6.3847
81 1     8.5130     2.1282     8.5130
82 1    10.6412     0.0000     8.5130
83 1    10.6412     2.1282    10.6412
84 1     8.5130     0.0000    10.6412
85 1     8.5130     6.3847     0.0000
86 1    10.6412     4.2565     0.0000
87 1    10.6412     6.3847     2.1282
88 1     8.5130     4.2565     2.1282
89 1     8.5130     6.3847     4.2565
90 1    10.6412     4.2565     4.2565
91 1    10.6412     6.3847     6.3847
92 1     8.5130     4.2565     6.3847
93 1     8.5130     6.3847     8.5130
94 1    10.6412     4.2565     8.5130
95 1    10.6412     6.3847    10.6412
96 1     8.5130     4.2565    10.6412
97 1     8.5130    10.6412     0.0000
98 1    10.6412     8.5130     0.0000
99 1    10.6412    10.6412     2.1282
100 1     8.5130     8.5130     2.1282
101 1     8.5130    10.6412     4.2565
102 1    10.6412     8.5130     4.2565
103 1    10.6412    10.6412     6.3847
104 1     8.5130     8.5130     6.3847
105 1     8.5130    10.6412     8.5130
106 1    10.6412     8.5130     8.5130
107 1    10.6412    10.6412    10.6412
108 1     8.5130     8.5130    10.6412
109 2     2.1282     2.1282     0.0000
110 2     2.1282     0.0000     2.1282
111 2     0.0000     0.0000     0.0000
112 2     0.0000     2.1282     2.1282
113 2     2.1282     2.1282     4.2565
114 2     2.1282     0.0000     6.3847
115 2     0.0000     0.0000     4.2565
116 2     0.0000     2.1282     6.3847
117 2     2.1282     2.1282     8.5130
118 2     2.1282     0.0000    10.6412
119 2     0.0000     0.0000     8.5130
120 2     0.0000     2.1282    10.6412
121 2     2.1282     6.3847     0.0000
122 2     2.1282     4.2565     2.1282
123 2     0.0000     4.2565     0.0000
124 2     0.0000     6.3847     2.1282
125 2     2.1282     6.3847     4.2565
126 2     2.1282     4.2565     6.3847
127 2     0.0000     4.2565     4.2565
128 2     0.0000     6.3847     6.3847
129 2     2.1282     6.3847     8.5130
130 2     2.1282     4.2565    10.6412
131 2     0.0000     4.2565     8.5130
132 2     0.0000     6.3847    10.6412
133 2     2.1282    10.6412     0.0000
134 2     2.1282     8.5130     2.1282
135 2     0.0000     8.5130     0.0000
136 2     0.0000    10.6412     2.1282
137 2     2.1282    10.6412     4.2565
138 2     2.1282     8.5130     6.3847
139 2     0.0000     8.5130     4.2565
140 2     0.0000    10.6412     6.3847
141 2     2.1282    10.6412     8.5130
142 2     2.1282     8.5130    10.6412
143 2     0.0000     8.5130     8.5130
144 2     0.0000    10.6412    10.6412
145 2     6.3847     2.1282     0.0000
146 2     6.3847     0.0000     2.1282
147 2     4.2565     0.0000     0.0000
148 2     4.2565     2.1282     2.1282
149 2     6.3847     2.1282     4.2565
150 2     6.3847     0.0000     6.3847
151 2     4.2565     0.0000     4.2565
152 2     4.2565     2.1282     6.3847
153 2     6.3847     2.1282     8.5130
154 2     6.3847     0.0000    10.6412
155 2     4.2565     0.0000     8.5130
156 2     4.2565     2.1282    10.6412
157 2     6.3847     6.3847     0.0000
158 2     6.3847     4.2565     2.1282
159 2     4.2565     4.2565     0.0000
160 2     4.2565     6.3847     2.1282
161 2     6.3847     6.3847     4.2565
162 2     6.3847     4.2565     6.3847
163 2     4.2565     4.2565     4.2565
164 2     4.2565     6.3847     6.3847
165 2     6.3847     6.3847     8.5130
166 2     6.3847     4.2565    10.6412
167 2     4.2565     4.2565     8.5130
168 2     4.2565     6.3847    10.6412
169 2     6.3847    10.6412     0.0000
170 2     6.3847     8.5130     2.1282
171 2     4.2565     8.5130     0.0000
172 2     4.2565    10.6412     2.1282
173 2     6.3847    10.6412     4.2565
174 2     6.3847     8.5130     6.3847
175 2     4.2565     8.5130     4.2565
176 2     4.2565    10.6412     6.3847
177 2     6.3847    10.6412     8.5130
178 2     6.3847     8.5130    10.6412
179 2     4.2565     8.5130     8.5130
180 2     4.2565    10.6412    10.6412
181 2    10.6412     2.1282     0.0000
182 2    10.6412     0.0000     2.1282
183 2     8.5130     0.0000     0.0000
184 2     8.5130     2.1282     2.1282
185 2    10.6412     2.1282     4.2565
186 2    10.6412     0.0000     6.3847
187 2     8.5130     0.0000     4.2565
188 2     8.5130     2.1282     6.3847
189 2    10.6412     2.1282     8.5130
190 2    10.6412     0.0000    10.6412
191 2     8.5130     0.0000     8.5130
192 2     8.5130     2.1282    10.6412
193 2    10.6412     6.3847     0.0000
194 2    10.6412     4.2565     2.1282
195 2     8.5130     4.2565     0.0000
196 2     8.5130     6.3847     2.1282
197 2    10.6412     6.3847     4.2565
198 2    10.6412     4.2565     6.3847
199 2     8.5130     4.2565     4.2565
200 2     8.5130     6.3847     6.3847
201 2    10.6412     6.3847     8.5130
202 2    10.6412     4.2565    10.6412
203 2     8.5130     4.2565     8.5130
204 2     8.5130     6.3847    10.6412
205 2    10.6412    10.6412     0.0000
206 2    10.6412     8.5130     2.1282
207 2     8.5130     8.5130     0.0000
208 2     8.5130    10.6412     2.1282
209 2    10.6412    10.6412     4.2565
210 2    10.6412     8.5130     6.3847
211 2     8.5130     8.5130     4.2565
212 2     8.5130    10.6412     6.3847
213 2    10.6412    10.6412     8.5130
214 2    10.6412     8.5130    10.6412
215 2     8.5130     8.5130     8.5130
216 2     8.5130    10.6412    10.6412
