Si                                      
   1.00000000000000     
     4.256483    0.000000    0.000000
     0.000000    4.256483    0.000000
     0.000000    0.000000    4.256483
   Mg   O 
     4     4
Direct
  0.500000  0.500000  0.000000
  0.500000  0.000000  0.500000
  0.000000  0.000000  0.000000
  0.000000  0.500000  0.500000
  0.000000  0.500000  0.000000
  0.500000  0.000000  0.000000
  0.500000  0.500000  0.500000
  0.000000  0.000000  0.500000
 
   64   64   64
  2.4381      2.4380      2.4429      2.4782      2.5731      2.7650      3.0823      3.5597      4.2237      5.1101    
  6.2627      7.7452      9.6307      12.014      15.001      18.747      23.481      29.585      37.659      48.603    
  63.620      84.107      111.75      149.94      201.70      267.05      342.13      419.69      491.24      549.63    
  591.08      615.10      622.88      615.10      591.08      549.63      491.24      419.69      342.13      267.05    
  201.70      149.94      111.75      84.107      63.620      48.603      37.659      29.585      23.481      18.747    
  15.001      12.014      9.6307      7.7452      6.2627      5.1101      4.2237      3.5597      3.0823      2.7650    
  2.5731      2.4782      2.4429      2.4380      2.4380      2.4380      2.4432      2.4782      2.5715      2.7609    
  3.0766      3.5516      4.2112      5.0926      6.2375      7.7098      9.5805      11.943      14.903      18.613    
  23.295      29.325      37.289      48.069      62.839      82.976      110.09      147.41      197.99      261.94    
  335.64      412.09      482.98      541.22      582.87      607.19      615.10      607.19      582.87      541.22    
  482.98      412.09      335.64      261.94      197.99      147.41      110.09      82.976      62.839      48.069    
  37.289      29.325      23.295      18.613      14.903      11.943      9.5805      7.7098      6.2375      5.0926    
  4.2112      3.5516      3.0766      2.7609      2.5715      2.4782      2.4432      2.4380      2.4429      2.4432    
  2.4472      2.4815      2.5724      2.7585      3.0663      3.5324      4.1798      5.0453      6.1674      7.6088    
  9.4352      11.739      14.617      18.219      22.750      28.567      36.211      46.518      60.574      79.704    
  105.30      140.18      187.34      247.23      316.83      389.84      458.55      516.02      557.94      582.87    
  591.08      582.87      557.94      516.02      458.55      389.84      316.83      247.23      187.34      140.18    
  105.30      79.704      60.574      46.518      36.211      28.567      22.750      18.219      14.617      11.739    
  9.4352      7.6088      6.1674      5.0453      4.1798      3.5324      3.0663      2.7585      2.5724      2.4815    
  2.4472      2.4432      2.4782      2.4782      2.4815      2.5128      2.5974      2.7732      3.0695      3.5199    
  4.1455      4.9835      6.0677      7.4569      9.2113      11.418      14.166      17.594      21.886      27.367    
  34.518      44.089      57.051      74.620      97.956      129.19      171.17      224.73      287.69      354.84    
  419.34      474.62      516.02      541.22      549.63      541.22      516.02      474.62      419.34      354.84    
  287.69      224.73      171.17      129.19      97.956      74.620      57.051      44.089      34.518      27.367    
  21.886      17.594      14.166      11.418      9.2113      7.4569      6.0677      4.9835      4.1455      3.5199    
  3.0695      2.7732      2.5974      2.5128      2.4815      2.4782      2.5731      2.5715      2.5724      2.5974    
  2.6739      2.8359      3.1138      3.5382      4.1337      4.9300      5.9612      7.2763      8.9330      11.006    
  13.582      16.779      20.764      25.812      32.342      40.989      52.594      68.204      88.822      115.79    
  151.49      197.13      251.41      310.38      368.35      419.34      458.55      482.98      491.24      482.98    
  458.55      419.34      368.35      310.38      251.41      197.13      151.49      115.79      88.822      68.204    
  52.594      40.989      32.342      25.812      20.764      16.779      13.582      11.006      8.9330      7.2763    
  5.9612      4.9300      4.1337      3.5382      3.1138      2.8359      2.6739      2.5974      2.5724      2.5715    
  2.7650      2.7609      2.7585      2.7732      2.8359      2.9761      3.2293      3.6184      4.1720      4.9127    
  5.8746      7.0946      8.6290      10.538      12.905      15.826      19.454      24.006      29.840      37.459    
  47.572      61.017      78.691      101.35      130.51      167.56      211.98      261.07      310.38      354.84    
  389.84      412.09      419.69      412.09      389.84      354.84      310.38      261.07      211.98      167.56    
  130.51      101.35      78.691      61.017      47.572      37.459      29.840      24.006      19.454      15.826    
  12.905      10.538      8.6290      7.0946      5.8746      4.9127      4.1720      3.6184      3.2293      2.9761    
  2.8359      2.7732      2.7585      2.7609      3.0823      3.0766      3.0663      3.0695      3.1138      3.2293    
  3.4453      3.7903      4.2883      4.9604      5.8338      6.9413      8.3280      10.049      12.175      14.794    
  18.027      22.058      27.162      33.737      42.332      53.611      68.296      86.945      110.14      138.94    
  173.43      211.98      251.41      287.69      316.83      335.64      342.13      335.64      316.83      287.69    
  251.41      211.98      173.43      138.94      110.14      86.945      68.296      53.611      42.332      33.737    
  27.162      22.058      18.027      14.794      12.175      10.049      8.3280      6.9413      5.8338      4.9604    
  4.2883      3.7903      3.4453      3.2293      3.1138      3.0695      3.0663      3.0766      3.5597      3.5516    
  3.5324      3.5199      3.5382      3.6184      3.7903      4.0803      4.5084      5.0968      5.8645      6.8407    
  8.0605      9.5736      11.439      13.734      16.560      20.063      24.450      30.023      37.181      46.431    
  58.302      73.269      91.524      113.32      138.94      167.56      197.13      224.73      247.23      261.94    
  267.05      261.94      247.23      224.73      197.13      167.56      138.94      113.32      91.524      73.269    
  58.302      46.431      37.181      30.023      24.450      20.063      16.560      13.734      11.439      9.5736    
  8.0605      6.8407      5.8645      5.0968      4.5084      4.0803      3.7903      3.6184      3.5382      3.5199    
  3.5324      3.5516      4.2237      4.2112      4.1798      4.1455      4.1337      4.1720      4.2883      4.5084    
  4.8541      5.3408      5.9872      6.8137      7.8516      9.1404      10.734      12.697      15.117      18.106    
  21.820      26.469      32.342      39.787      49.189      60.880      75.039      91.524      110.14      130.51    
  151.49      171.17      187.34      197.99      201.70      197.99      187.34      171.17      151.49      130.51    
  110.14      91.524      75.039      60.880      49.189      39.787      32.342      26.469      21.820      18.106    
  15.117      12.697      10.734      9.1404      7.8516      6.8137      5.9872      5.3408      4.8541      4.5084    
  4.2883      4.1720      4.1337      4.1455      4.1798      4.2112      5.1101      5.0926      5.0453      4.9835    
  4.9300      4.9127      4.9604      5.0968      5.3408      5.7094      6.2157      6.8779      7.7198      8.7763    
  10.092      11.728      13.753      16.258      19.352      23.184      27.944      33.865      41.197      50.165    
  60.880      73.269      86.945      101.35      115.79      129.19      140.18      147.41      149.94      147.41    
  140.18      129.19      115.79      101.35      86.945      73.269      60.880      50.165      41.197      33.865    
  27.944      23.184      19.352      16.258      13.753      11.728      10.092      8.7763      7.7198      6.8779    
  6.2157      5.7094      5.3408      5.0968      4.9604      4.9127      4.9300      4.9835      5.0453      5.0926    
  6.2627      6.2375      6.1674      6.0677      5.9612      5.8746      5.8338      5.8645      5.9872      6.2157    
  6.5640      7.0459      7.6820      8.5009      9.5431      10.860      12.512      14.567      17.106      20.228    
  24.054      28.726      34.398      41.197      49.189      58.302      68.296      78.691      88.822      97.956    
  105.30      110.09      111.75      110.09      105.30      97.956      88.822      78.691      68.296      58.302    
  49.189      41.197      34.398      28.726      24.054      20.228      17.106      14.567      12.512      10.860    
  9.5431      8.5009      7.6820      7.0459      6.5640      6.2157      5.9872      5.8645      5.8338      5.8746    
  5.9612      6.0677      6.1674      6.2375      7.7452      7.7098      7.6088      7.4569      7.2763      7.0946    
  6.9413      6.8407      6.8137      6.8779      7.0459      7.3316      7.7519      8.3323      9.1080      10.123    
  11.425      13.071      15.117      17.630      20.681      24.353      28.726      33.865      39.787      46.431    
  53.611      61.017      68.204      74.620      79.704      82.976      84.107      82.976      79.704      74.620    
  68.204      61.017      53.611      46.431      39.787      33.865      28.726      24.353      20.681      17.630    
  15.117      13.071      11.425      10.123      9.1080      8.3323      7.7519      7.3316      7.0459      6.8779    
  6.8137      6.8407      6.9413      7.0946      7.2763      7.4569      7.6088      7.7098      9.6307      9.5805    
  9.4352      9.2113      8.9330      8.6290      8.3280      8.0605      7.8516      7.7198      7.6820      7.7519    
  7.9464      8.2881      8.8063      9.5361      10.517      11.792      13.404      15.394      17.807      20.681    
  24.054      27.944      32.342      37.181      42.332      47.572      52.594      57.051      60.574      62.839    
  63.620      62.839      60.574      57.051      52.594      47.572      42.332      37.181      32.342      27.944    
  24.054      20.681      17.807      15.394      13.404      11.792      10.517      9.5361      8.8063      8.2881    
  7.9464      7.7519      7.6820      7.7198      7.8516      8.0605      8.3280      8.6290      8.9330      9.2113    
  9.4352      9.5805      12.014      11.943      11.739      11.418      11.006      10.538      10.049      9.5736    
  9.1404      8.7763      8.5009      8.3323      8.2881      8.3881      8.6551      9.1164      9.8020      10.744    
  11.972      13.514      15.394      17.630      20.228      23.184      26.469      30.023      33.737      37.459    
  40.989      44.089      46.518      48.069      48.603      48.069      46.518      44.089      40.989      37.459    
  33.737      30.023      26.469      23.184      20.228      17.630      15.394      13.514      11.972      10.744    
  9.8020      9.1164      8.6551      8.3881      8.2881      8.3323      8.5009      8.7763      9.1404      9.5736    
  10.049      10.538      11.006      11.418      11.739      11.943      15.001      14.903      14.617      14.166    
  13.582      12.905      12.175      11.439      10.734      10.092      9.5431      9.1080      8.8063      8.6551    
  8.6721      8.8761      9.2876      9.9278      10.817      11.972      13.404      15.117      17.106      19.352    
  21.820      24.450      27.162      29.840      32.342      34.518      36.211      37.289      37.659      37.289    
  36.211      34.518      32.342      29.840      27.162      24.450      21.820      19.352      17.106      15.117    
  13.404      11.972      10.817      9.9278      9.2876      8.8761      8.6721      8.6551      8.8063      9.1080    
  9.5431      10.092      10.734      11.439      12.175      12.905      13.582      14.166      14.617      14.903    
  18.747      18.613      18.219      17.594      16.779      15.826      14.794      13.734      12.697      11.728    
  10.860      10.123      9.5361      9.1164      8.8761      8.8264      8.9780      9.3419      9.9278      10.744    
  11.792      13.071      14.567      16.258      18.106      20.063      22.058      24.006      25.812      27.367    
  28.567      29.325      29.585      29.325      28.567      27.367      25.812      24.006      22.058      20.063    
  18.106      16.258      14.567      13.071      11.792      10.744      9.9278      9.3419      8.9780      8.8264    
  8.8761      9.1164      9.5361      10.123      10.860      11.728      12.697      13.734      14.794      15.826    
  16.779      17.594      18.219      18.613      23.481      23.295      22.750      21.886      20.764      19.454    
  18.027      16.560      15.117      13.753      12.512      11.425      10.517      9.8020      9.2876      8.9780    
  8.8748      8.9780      9.2876      9.8020      10.517      11.425      12.512      13.753      15.117      16.560    
  18.027      19.454      20.764      21.886      22.750      23.295      23.481      23.295      22.750      21.886    
  20.764      19.454      18.027      16.560      15.117      13.753      12.512      11.425      10.517      9.8020    
  9.2876      8.9780      8.8748      8.9780      9.2876      9.8020      10.517      11.425      12.512      13.753    
  15.117      16.560      18.027      19.454      20.764      21.886      22.750      23.295      29.585      29.325    
  28.567      27.367      25.812      24.006      22.058      20.063      18.106      16.258      14.567      13.071    
  11.792      10.744      9.9278      9.3419      8.9780      8.8264      8.8761      9.1164      9.5361      10.123    
  10.860      11.728      12.697      13.734      14.794      15.826      16.779      17.594      18.219      18.613    
  18.747      18.613      18.219      17.594      16.779      15.826      14.794      13.734      12.697      11.728    
  10.860      10.123      9.5361      9.1164      8.8761      8.8264      8.9780      9.3419      9.9278      10.744    
  11.792      13.071      14.567      16.258      18.106      20.063      22.058      24.006      25.812      27.367    
  28.567      29.325      37.659      37.289      36.211      34.518      32.342      29.840      27.162      24.450    
  21.820      19.352      17.106      15.117      13.404      11.972      10.817      9.9278      9.2876      8.8761    
  8.6721      8.6551      8.8063      9.1080      9.5431      10.092      10.734      11.439      12.175      12.905    
  13.582      14.166      14.617      14.903      15.001      14.903      14.617      14.166      13.582      12.905    
  12.175      11.439      10.734      10.092      9.5431      9.1080      8.8063      8.6551      8.6721      8.8761    
  9.2876      9.9278      10.817      11.972      13.404      15.117      17.106      19.352      21.820      24.450    
  27.162      29.840      32.342      34.518      36.211      37.289      48.603      48.069      46.518      44.089    
  40.989      37.459      33.737      30.023      26.469      23.184      20.228      17.630      15.394      13.514    
  11.972      10.744      9.8020      9.1164      8.6551      8.3881      8.2881      8.3323      8.5009      8.7763    
  9.1404      9.5736      10.049      10.538      11.006      11.418      11.739      11.943      12.014      11.943    
  11.739      11.418      11.006      10.538      10.049      9.5736      9.1404      8.7763      8.5009      8.3323    
  8.2881      8.3881      8.6551      9.1164      9.8020      10.744      11.972      13.514      15.394      17.630    
  20.228      23.184      26.469      30.023      33.737      37.459      40.989      44.089      46.518      48.069    
  63.620      62.839      60.574      57.051      52.594      47.572      42.332      37.181      32.342      27.944    
  24.054      20.681      17.807      15.394      13.404      11.792      10.517      9.5361      8.8063      8.2881    
  7.9464      7.7519      7.6820      7.7198      7.8516      8.0605      8.3280      8.6290      8.9330      9.2113    
  9.4352      9.5805      9.6307      9.5805      9.4352      9.2113      8.9330      8.6290      8.3280      8.0605    
  7.8516      7.7198      7.6820      7.7519      7.9464      8.2881      8.8063      9.5361      10.517      11.792    
  13.404      15.394      17.807      20.681      24.054      27.944      32.342      37.181      42.332      47.572    
  52.594      57.051      60.574      62.839      84.107      82.976      79.704      74.620      68.204      61.017    
  53.611      46.431      39.787      33.865      28.726      24.353      20.681      17.630      15.117      13.071    
  11.425      10.123      9.1080      8.3323      7.7519      7.3316      7.0459      6.8779      6.8137      6.8407    
  6.9413      7.0946      7.2763      7.4569      7.6088      7.7098      7.7452      7.7098      7.6088      7.4569    
  7.2763      7.0946      6.9413      6.8407      6.8137      6.8779      7.0459      7.3316      7.7519      8.3323    
  9.1080      10.123      11.425      13.071      15.117      17.630      20.681      24.353      28.726      33.865    
  39.787      46.431      53.611      61.017      68.204      74.620      79.704      82.976      111.75      110.09    
  105.30      97.956      88.822      78.691      68.296      58.302      49.189      41.197      34.398      28.726    
  24.054      20.228      17.106      14.567      12.512      10.860      9.5431      8.5009      7.6820      7.0459    
  6.5640      6.2157      5.9872      5.8645      5.8338      5.8746      5.9612      6.0677      6.1674      6.2375    
  6.2627      6.2375      6.1674      6.0677      5.9612      5.8746      5.8338      5.8645      5.9872      6.2157    
  6.5640      7.0459      7.6820      8.5009      9.5431      10.860      12.512      14.567      17.106      20.228    
  24.054      28.726      34.398      41.197      49.189      58.302      68.296      78.691      88.822      97.956    
  105.30      110.09      149.94      147.41      140.18      129.19      115.79      101.35      86.945      73.269    
  60.880      50.165      41.197      33.865      27.944      23.184      19.352      16.258      13.753      11.728    
  10.092      8.7763      7.7198      6.8779      6.2157      5.7094      5.3408      5.0968      4.9604      4.9127    
  4.9300      4.9835      5.0453      5.0926      5.1101      5.0926      5.0453      4.9835      4.9300      4.9127    
  4.9604      5.0968      5.3408      5.7094      6.2157      6.8779      7.7198      8.7763      10.092      11.728    
  13.753      16.258      19.352      23.184      27.944      33.865      41.197      50.165      60.880      73.269    
  86.945      101.35      115.79      129.19      140.18      147.41      201.70      197.99      187.34      171.17    
  151.49      130.51      110.14      91.524      75.039      60.880      49.189      39.787      32.342      26.469    
  21.820      18.106      15.117      12.697      10.734      9.1404      7.8516      6.8137      5.9872      5.3408    
  4.8541      4.5084      4.2883      4.1720      4.1337      4.1455      4.1798      4.2112      4.2237      4.2112    
  4.1798      4.1455      4.1337      4.1720      4.2883      4.5084      4.8541      5.3408      5.9872      6.8137    
  7.8516      9.1404      10.734      12.697      15.117      18.106      21.820      26.469      32.342      39.787    
  49.189      60.880      75.039      91.524      110.14      130.51      151.49      171.17      187.34      197.99    
  267.05      261.94      247.23      224.73      197.13      167.56      138.94      113.32      91.524      73.269    
  58.302      46.431      37.181      30.023      24.450      20.063      16.560      13.734      11.439      9.5736    
  8.0605      6.8407      5.8645      5.0968      4.5084      4.0803      3.7903      3.6184      3.5382      3.5199    
  3.5324      3.5516      3.5597      3.5516      3.5324      3.5199      3.5382      3.6184      3.7903      4.0803    
  4.5084      5.0968      5.8645      6.8407      8.0605      9.5736      11.439      13.734      16.560      20.063    
  24.450      30.023      37.181      46.431      58.302      73.269      91.524      113.32      138.94      167.56    
  197.13      224.73      247.23      261.94      342.13      335.64      316.83      287.69      251.41      211.98    
  173.43      138.94      110.14      86.945      68.296      53.611      42.332      33.737      27.162      22.058    
  18.027      14.794      12.175      10.049      8.3280      6.9413      5.8338      4.9604      4.2883      3.7903    
  3.4453      3.2293      3.1138      3.0695      3.0663      3.0766      3.0823      3.0766      3.0663      3.0695    
  3.1138      3.2293      3.4453      3.7903      4.2883      4.9604      5.8338      6.9413      8.3280      10.049    
  12.175      14.794      18.027      22.058      27.162      33.737      42.332      53.611      68.296      86.945    
  110.14      138.94      173.43      211.98      251.41      287.69      316.83      335.64      419.69      412.09    
  389.84      354.84      310.38      261.07      211.98      167.56      130.51      101.35      78.691      61.017    
  47.572      37.459      29.840      24.006      19.454      15.826      12.905      10.538      8.6290      7.0946    
  5.8746      4.9127      4.1720      3.6184      3.2293      2.9761      2.8359      2.7732      2.7585      2.7609    
  2.7650      2.7609      2.7585      2.7732      2.8359      2.9761      3.2293      3.6184      4.1720      4.9127    
  5.8746      7.0946      8.6290      10.538      12.905      15.826      19.454      24.006      29.840      37.459    
  47.572      61.017      78.691      101.35      130.51      167.56      211.98      261.07      310.38      354.84    
  389.84      412.09      491.24      482.98      458.55      419.34      368.35      310.38      251.41      197.13    
  151.49      115.79      88.822      68.204      52.594      40.989      32.342      25.812      20.764      16.779    
  13.582      11.006      8.9330      7.2763      5.9612      4.9300      4.1337      3.5382      3.1138      2.8359    
  2.6739      2.5974      2.5724      2.5715      2.5731      2.5715      2.5724      2.5974      2.6739      2.8359    
  3.1138      3.5382      4.1337      4.9300      5.9612      7.2763      8.9330      11.006      13.582      16.779    
  20.764      25.812      32.342      40.989      52.594      68.204      88.822      115.79      151.49      197.13    
  251.41      310.38      368.35      419.34      458.55      482.98      549.63      541.22      516.02      474.62    
  419.34      354.84      287.69      224.73      171.17      129.19      97.956      74.620      57.051      44.089    
  34.518      27.367      21.886      17.594      14.166      11.418      9.2113      7.4569      6.0677      4.9835    
  4.1455      3.5199      3.0695      2.7732      2.5974      2.5128      2.4815      2.4782      2.4782      2.4782    
  2.4815      2.5128      2.5974      2.7732      3.0695      3.5199      4.1455      4.9835      6.0677      7.4569    
  9.2113      11.418      14.166      17.594      21.886      27.367      34.518      44.089      57.051      74.620    
  97.956      129.19      171.17      224.73      287.69      354.84      419.34      474.62      516.02      541.22    
  591.08      582.87      557.94      516.02      458.55      389.84      316.83      247.23      187.34      140.18    
  105.30      79.704      60.574      46.518      36.211      28.567      22.750      18.219      14.617      11.739    
  9.4352      7.6088      6.1674      5.0453      4.1798      3.5324      3.0663      2.7585      2.5724      2.4815    
  2.4472      2.4432      2.4429      2.4432      2.4472      2.4815      2.5724      2.7585      3.0663      3.5324    
  4.1798      5.0453      6.1674      7.6088      9.4352      11.739      14.617      18.219      22.750      28.567    
  36.211      46.518      60.574      79.704      105.30      140.18      187.34      247.23      316.83      389.84    
  458.55      516.02      557.94      582.87      615.10      607.19      582.87      541.22      482.98      412.09    
  335.64      261.94      197.99      147.41      110.09      82.976      62.839      48.069      37.289      29.325    
  23.295      18.613      14.903      11.943      9.5805      7.7098      6.2375      5.0926      4.2112      3.5516    
  3.0766      2.7609      2.5715      2.4782      2.4432      2.4380      2.4380      2.4380      2.4432      2.4782    
  2.5715      2.7609      3.0766      3.5516      4.2112      5.0926      6.2375      7.7098      9.5805      11.943    
  14.903      18.613      23.295      29.325      37.289      48.069      62.839      82.976      110.09      147.41    
  197.99      261.94      335.64      412.09      482.98      541.22      582.87      607.19      622.88      615.10    
  591.08      549.63      491.24      419.69      342.13      267.05      201.70      149.94      111.75      84.107    
  63.620      48.603      37.659      29.585      23.481      18.747      15.001      12.014      9.6307      7.7452    
  6.2627      5.1101      4.2237      3.5597      3.0823      2.7650      2.5731      2.4782      2.4429      2.4380    
  2.4381      2.4380      2.4429      2.4782      2.5731      2.7650      3.0823      3.5597      4.2237      5.1101    
  6.2627      7.7452      9.6307      12.014      15.001      18.747      23.481      29.585      37.659      48.603    
  63.620      84.107      111.75      149.94      201.70      267.05      342.13      419.69      491.24      549.63    
  591.08      615.10      615.10      607.19      582.87      541.22      482.98      412.09      335.64      261.94    
  197.99      147.41      110.09      82.976      62.839      48.069      37.289      29.325      23.295      18.613    
  14.903      11.943      9.5805      7.7098      6.2375      5.0926      4.2112      3.5516      3.0766      2.7609    
  2.5715      2.4782      2.4432      2.4380      2.4380      2.4380      2.4432      2.4782      2.5715      2.7609    
  3.0766      3.5516      4.2112      5.0926      6.2375      7.7098      9.5805      11.943      14.903      18.613    
  23.295      29.325      37.289      48.069      62.839      82.976      110.09      147.41      197.99      261.94    
  335.64      412.09      482.98      541.22      582.87      607.19      591.08      582.87      557.94      516.02    
  458.55      389.84      316.83      247.23      187.34      140.18      105.30      79.704      60.574      46.518    
  36.211      28.567      22.750      18.219      14.617      11.739      9.4352      7.6088      6.1674      5.0453    
  4.1798      3.5324      3.0663      2.7585      2.5724      2.4815      2.4472      2.4432      2.4429      2.4432    
  2.4472      2.4815      2.5724      2.7585      3.0663      3.5324      4.1798      5.0453      6.1674      7.6088    
  9.4352      11.739      14.617      18.219      22.750      28.567      36.211      46.518      60.574      79.704    
  105.30      140.18      187.34      247.23      316.83      389.84      458.55      516.02      557.94      582.87    
  549.63      541.22      516.02      474.62      419.34      354.84      287.69      224.73      171.17      129.19    
  97.956      74.620      57.051      44.089      34.518      27.367      21.886      17.594      14.166      11.418    
  9.2113      7.4569      6.0677      4.9835      4.1455      3.5199      3.0695      2.7732      2.5974      2.5128    
  2.4815      2.4782      2.4782      2.4782      2.4815      2.5128      2.5974      2.7732      3.0695      3.5199    
  4.1455      4.9835      6.0677      7.4569      9.2113      11.418      14.166      17.594      21.886      27.367    
  34.518      44.089      57.051      74.620      97.956      129.19      171.17      224.73      287.69      354.84    
  419.34      474.62      516.02      541.22      491.24      482.98      458.55      419.34      368.35      310.38    
  251.41      197.13      151.49      115.79      88.822      68.204      52.594      40.989      32.342      25.812    
  20.764      16.779      13.582      11.006      8.9330      7.2763      5.9612      4.9300      4.1337      3.5382    
  3.1138      2.8359      2.6739      2.5974      2.5724      2.5715      2.5731      2.5715      2.5724      2.5974    
  2.6739      2.8359      3.1138      3.5382      4.1337      4.9300      5.9612      7.2763      8.9330      11.006    
  13.582      16.779      20.764      25.812      32.342      40.989      52.594      68.204      88.822      115.79    
  151.49      197.13      251.41      310.38      368.35      419.34      458.55      482.98      419.69      412.09    
  389.84      354.84      310.38      261.07      211.98      167.56      130.51      101.35      78.691      61.017    
  47.572      37.459      29.840      24.006      19.454      15.826      12.905      10.538      8.6290      7.0946    
  5.8746      4.9127      4.1720      3.6184      3.2293      2.9761      2.8359      2.7732      2.7585      2.7609    
  2.7650      2.7609      2.7585      2.7732      2.8359      2.9761      3.2293      3.6184      4.1720      4.9127    
  5.8746      7.0946      8.6290      10.538      12.905      15.826      19.454      24.006      29.840      37.459    
  47.572      61.017      78.691      101.35      130.51      167.56      211.98      261.07      310.38      354.84    