   8   8   0   0
  0.9639682E+01  0.4256483E-09  0.4256483E-09  0.4256483E-09  0.5000000E-15
  1.000000000000000E-004
  CAR 
 Si                                      
     16.69824963    -15.64844391  301      2.81612699      1.00000000
    -15.648  0.0000E+00  0.0000E+00
    -15.541  0.0000E+00  0.0000E+00
    -15.433  0.0000E+00  0.0000E+00
    -15.325  0.0000E+00  0.0000E+00
    -15.217  0.0000E+00  0.0000E+00
    -15.109  0.0000E+00  0.0000E+00
    -15.002  0.0000E+00  0.0000E+00
    -14.894  0.0000E+00  0.0000E+00
    -14.786  0.0000E+00  0.0000E+00
    -14.678  0.0000E+00  0.0000E+00
    -14.570  0.0000E+00  0.0000E+00
    -14.462  0.0000E+00  0.0000E+00
    -14.355  0.0000E+00  0.0000E+00
    -14.247  0.7093E-07  0.7648E-08
    -14.139  0.1156E+00  0.1247E-01
    -14.031  0.3225E-03  0.1250E-01
    -13.923  0.0000E+00  0.1250E-01
    -13.815  0.0000E+00  0.1250E-01
    -13.708  0.0000E+00  0.1250E-01
    -13.600  0.0000E+00  0.1250E-01
    -13.492  0.1179E-04  0.1250E-01
    -13.384  0.6954E+00  0.8748E-01
    -13.276  0.1752E-03  0.8750E-01
    -13.169  0.0000E+00  0.8750E-01
    -13.061  0.1016E-08  0.8750E-01
    -12.953  0.1311E+01  0.2289E+00
    -12.845  0.5437E+00  0.2875E+00
    -12.737  0.3023E-11  0.2875E+00
    -12.629  0.2859E+00  0.3183E+00
    -12.522  0.7575E+00  0.4000E+00
    -12.414  0.0000E+00  0.4000E+00
    -12.306  0.0000E+00  0.4000E+00
    -12.198  0.0000E+00  0.4000E+00
    -12.090  0.0000E+00  0.4000E+00
    -11.982  0.0000E+00  0.4000E+00
    -11.875  0.0000E+00  0.4000E+00
    -11.767  0.0000E+00  0.4000E+00
    -11.659  0.0000E+00  0.4000E+00
    -11.551  0.0000E+00  0.4000E+00
    -11.443  0.0000E+00  0.4000E+00
    -11.336  0.0000E+00  0.4000E+00
    -11.228  0.0000E+00  0.4000E+00
    -11.120  0.0000E+00  0.4000E+00
    -11.012  0.0000E+00  0.4000E+00
    -10.904  0.0000E+00  0.4000E+00
    -10.796  0.0000E+00  0.4000E+00
    -10.689  0.0000E+00  0.4000E+00
    -10.581  0.0000E+00  0.4000E+00
    -10.473  0.0000E+00  0.4000E+00
    -10.365  0.0000E+00  0.4000E+00
    -10.257  0.0000E+00  0.4000E+00
    -10.150  0.0000E+00  0.4000E+00
    -10.042  0.0000E+00  0.4000E+00
     -9.934  0.0000E+00  0.4000E+00
     -9.826  0.0000E+00  0.4000E+00
     -9.718  0.0000E+00  0.4000E+00
     -9.610  0.0000E+00  0.4000E+00
     -9.503  0.0000E+00  0.4000E+00
     -9.395  0.0000E+00  0.4000E+00
     -9.287  0.0000E+00  0.4000E+00
     -9.179  0.0000E+00  0.4000E+00
     -9.071  0.0000E+00  0.4000E+00
     -8.963  0.0000E+00  0.4000E+00
     -8.856  0.0000E+00  0.4000E+00
     -8.748  0.0000E+00  0.4000E+00
     -8.640  0.0000E+00  0.4000E+00
     -8.532  0.0000E+00  0.4000E+00
     -8.424  0.0000E+00  0.4000E+00
     -8.317  0.0000E+00  0.4000E+00
     -8.209  0.0000E+00  0.4000E+00
     -8.101  0.0000E+00  0.4000E+00
     -7.993  0.0000E+00  0.4000E+00
     -7.885  0.0000E+00  0.4000E+00
     -7.777  0.0000E+00  0.4000E+00
     -7.670  0.0000E+00  0.4000E+00
     -7.562  0.0000E+00  0.4000E+00
     -7.454  0.0000E+00  0.4000E+00
     -7.346  0.0000E+00  0.4000E+00
     -7.238  0.0000E+00  0.4000E+00
     -7.130  0.0000E+00  0.4000E+00
     -7.023  0.0000E+00  0.4000E+00
     -6.915  0.0000E+00  0.4000E+00
     -6.807  0.0000E+00  0.4000E+00
     -6.699  0.0000E+00  0.4000E+00
     -6.591  0.0000E+00  0.4000E+00
     -6.484  0.0000E+00  0.4000E+00
     -6.376  0.0000E+00  0.4000E+00
     -6.268  0.0000E+00  0.4000E+00
     -6.160  0.0000E+00  0.4000E+00
     -6.052  0.0000E+00  0.4000E+00
     -5.944  0.0000E+00  0.4000E+00
     -5.837  0.0000E+00  0.4000E+00
     -5.729  0.0000E+00  0.4000E+00
     -5.621  0.0000E+00  0.4000E+00
     -5.513  0.0000E+00  0.4000E+00
     -5.405  0.0000E+00  0.4000E+00
     -5.298  0.0000E+00  0.4000E+00
     -5.190  0.0000E+00  0.4000E+00
     -5.082  0.0000E+00  0.4000E+00
     -4.974  0.0000E+00  0.4000E+00
     -4.866  0.0000E+00  0.4000E+00
     -4.758  0.0000E+00  0.4000E+00
     -4.651  0.0000E+00  0.4000E+00
     -4.543  0.0000E+00  0.4000E+00
     -4.435  0.0000E+00  0.4000E+00
     -4.327  0.0000E+00  0.4000E+00
     -4.219  0.0000E+00  0.4000E+00
     -4.111  0.0000E+00  0.4000E+00
     -4.004  0.0000E+00  0.4000E+00
     -3.896  0.0000E+00  0.4000E+00
     -3.788  0.0000E+00  0.4000E+00
     -3.680  0.0000E+00  0.4000E+00
     -3.572  0.0000E+00  0.4000E+00
     -3.465  0.0000E+00  0.4000E+00
     -3.357  0.0000E+00  0.4000E+00
     -3.249  0.0000E+00  0.4000E+00
     -3.141  0.0000E+00  0.4000E+00
     -3.033  0.0000E+00  0.4000E+00
     -2.925  0.0000E+00  0.4000E+00
     -2.818  0.0000E+00  0.4000E+00
     -2.710  0.0000E+00  0.4000E+00
     -2.602  0.0000E+00  0.4000E+00
     -2.494  0.0000E+00  0.4000E+00
     -2.386  0.0000E+00  0.4000E+00
     -2.278  0.0000E+00  0.4000E+00
     -2.171  0.0000E+00  0.4000E+00
     -2.063  0.0000E+00  0.4000E+00
     -1.955  0.8974E-04  0.4000E+00
     -1.847  0.4636E+00  0.4500E+00
     -1.739  0.0000E+00  0.4500E+00
     -1.632  0.0000E+00  0.4500E+00
     -1.524  0.0000E+00  0.4500E+00
     -1.416  0.7065E-04  0.4500E+00
     -1.308  0.3477E+00  0.4875E+00
     -1.200  0.0000E+00  0.4875E+00
     -1.092  0.0000E+00  0.4875E+00
     -0.985  0.0000E+00  0.4875E+00
     -0.877  0.3316E-07  0.4875E+00
     -0.769  0.1370E+01  0.6352E+00
     -0.661  0.2117E-01  0.6375E+00
     -0.553  0.0000E+00  0.6375E+00
     -0.445  0.0000E+00  0.6375E+00
     -0.338  0.1201E-08  0.6375E+00
     -0.230  0.1315E+01  0.7793E+00
     -0.122  0.7584E-01  0.7875E+00
     -0.014  0.1769E-06  0.7875E+00
      0.094  0.6924E+00  0.8622E+00
      0.201  0.3232E-02  0.8625E+00
      0.309  0.0000E+00  0.8625E+00
      0.417  0.0000E+00  0.8625E+00
      0.525  0.0000E+00  0.8625E+00
      0.633  0.1506E-04  0.8625E+00
      0.741  0.1391E+01  0.1012E+01
      0.848  0.5141E-03  0.1013E+01
      0.956  0.6952E+00  0.1087E+01
      1.064  0.3872E-03  0.1087E+01
      1.172  0.0000E+00  0.1087E+01
      1.280  0.4574E-04  0.1088E+01
      1.387  0.6955E+00  0.1162E+01
      1.495  0.0000E+00  0.1163E+01
      1.603  0.0000E+00  0.1163E+01
      1.711  0.0000E+00  0.1163E+01
      1.819  0.0000E+00  0.1163E+01
      1.927  0.2919E+00  0.1194E+01
      2.034  0.2348E+01  0.1447E+01
      2.142  0.1070E+01  0.1562E+01
      2.250  0.0000E+00  0.1562E+01
      2.358  0.0000E+00  0.1562E+01
      2.466  0.0000E+00  0.1562E+01
      2.574  0.1477E-10  0.1563E+01
      2.681  0.3030E+00  0.1595E+01
      2.789  0.4476E-01  0.1600E+01
      2.897  0.0000E+00  0.1600E+01
      3.005  0.0000E+00  0.1600E+01
      3.113  0.0000E+00  0.1600E+01
      3.220  0.0000E+00  0.1600E+01
      3.328  0.0000E+00  0.1600E+01
      3.436  0.0000E+00  0.1600E+01
      3.544  0.0000E+00  0.1600E+01
      3.652  0.0000E+00  0.1600E+01
      3.760  0.0000E+00  0.1600E+01
      3.867  0.0000E+00  0.1600E+01
      3.975  0.0000E+00  0.1600E+01
      4.083  0.0000E+00  0.1600E+01
      4.191  0.0000E+00  0.1600E+01
      4.299  0.0000E+00  0.1600E+01
      4.407  0.0000E+00  0.1600E+01
      4.514  0.0000E+00  0.1600E+01
      4.622  0.0000E+00  0.1600E+01
      4.730  0.0000E+00  0.1600E+01
      4.838  0.0000E+00  0.1600E+01
      4.946  0.0000E+00  0.1600E+01
      5.053  0.0000E+00  0.1600E+01
      5.161  0.0000E+00  0.1600E+01
      5.269  0.0000E+00  0.1600E+01
      5.377  0.0000E+00  0.1600E+01
      5.485  0.0000E+00  0.1600E+01
      5.593  0.0000E+00  0.1600E+01
      5.700  0.0000E+00  0.1600E+01
      5.808  0.0000E+00  0.1600E+01
      5.916  0.0000E+00  0.1600E+01
      6.024  0.0000E+00  0.1600E+01
      6.132  0.0000E+00  0.1600E+01
      6.239  0.0000E+00  0.1600E+01
      6.347  0.0000E+00  0.1600E+01
      6.455  0.0000E+00  0.1600E+01
      6.563  0.0000E+00  0.1600E+01
      6.671  0.0000E+00  0.1600E+01
      6.779  0.0000E+00  0.1600E+01
      6.886  0.0000E+00  0.1600E+01
      6.994  0.1791E-01  0.1602E+01
      7.102  0.9803E-01  0.1612E+01
      7.210  0.0000E+00  0.1613E+01
      7.318  0.0000E+00  0.1613E+01
      7.426  0.0000E+00  0.1613E+01
      7.533  0.0000E+00  0.1613E+01
      7.641  0.0000E+00  0.1613E+01
      7.749  0.0000E+00  0.1613E+01
      7.857  0.0000E+00  0.1613E+01
      7.965  0.0000E+00  0.1613E+01
      8.072  0.0000E+00  0.1613E+01
      8.180  0.0000E+00  0.1613E+01
      8.288  0.0000E+00  0.1613E+01
      8.396  0.0000E+00  0.1613E+01
      8.504  0.0000E+00  0.1613E+01
      8.612  0.0000E+00  0.1613E+01
      8.719  0.0000E+00  0.1613E+01
      8.827  0.0000E+00  0.1613E+01
      8.935  0.0000E+00  0.1613E+01
      9.043  0.0000E+00  0.1613E+01
      9.151  0.0000E+00  0.1613E+01
      9.259  0.0000E+00  0.1613E+01
      9.366  0.0000E+00  0.1613E+01
      9.474  0.0000E+00  0.1613E+01
      9.582  0.0000E+00  0.1613E+01
      9.690  0.0000E+00  0.1613E+01
      9.798  0.0000E+00  0.1613E+01
      9.905  0.0000E+00  0.1613E+01
     10.013  0.0000E+00  0.1613E+01
     10.121  0.4480E-06  0.1613E+01
     10.229  0.4628E+00  0.1662E+01
     10.337  0.6958E+00  0.1737E+01
     10.445  0.7919E-03  0.1738E+01
     10.552  0.0000E+00  0.1738E+01
     10.660  0.0000E+00  0.1738E+01
     10.768  0.0000E+00  0.1738E+01
     10.876  0.0000E+00  0.1738E+01
     10.984  0.0000E+00  0.1738E+01
     11.091  0.0000E+00  0.1738E+01
     11.199  0.0000E+00  0.1738E+01
     11.307  0.0000E+00  0.1738E+01
     11.415  0.2170E-10  0.1738E+01
     11.523  0.3071E+00  0.1771E+01
     11.631  0.4065E-01  0.1775E+01
     11.738  0.1383E+01  0.1924E+01
     11.846  0.8438E-02  0.1925E+01
     11.954  0.4211E-05  0.1925E+01
     12.062  0.3477E+00  0.1962E+01
     12.170  0.1162E-03  0.1962E+01
     12.278  0.0000E+00  0.1962E+01
     12.385  0.0000E+00  0.1962E+01
     12.493  0.0000E+00  0.1962E+01
     12.601  0.0000E+00  0.1962E+01
     12.709  0.0000E+00  0.1962E+01
     12.817  0.0000E+00  0.1962E+01
     12.924  0.0000E+00  0.1962E+01
     13.032  0.0000E+00  0.1962E+01
     13.140  0.0000E+00  0.1962E+01
     13.248  0.0000E+00  0.1962E+01
     13.356  0.0000E+00  0.1962E+01
     13.464  0.1439E-02  0.1963E+01
     13.571  0.6941E+00  0.2037E+01
     13.679  0.0000E+00  0.2038E+01
     13.787  0.1259E-13  0.2038E+01
     13.895  0.6737E+00  0.2110E+01
     14.003  0.7194E+00  0.2188E+01
     14.111  0.1389E+01  0.2337E+01
     14.218  0.0000E+00  0.2337E+01
     14.326  0.0000E+00  0.2337E+01
     14.434  0.0000E+00  0.2337E+01
     14.542  0.0000E+00  0.2337E+01
     14.650  0.4175E-05  0.2338E+01
     14.757  0.4635E+00  0.2387E+01
     14.865  0.1971E-03  0.2388E+01
     14.973  0.0000E+00  0.2388E+01
     15.081  0.0000E+00  0.2388E+01
     15.189  0.3225E-03  0.2388E+01
     15.297  0.1156E+00  0.2400E+01
     15.404  0.0000E+00  0.2400E+01
     15.512  0.0000E+00  0.2400E+01
     15.620  0.0000E+00  0.2400E+01
     15.728  0.0000E+00  0.2400E+01
     15.836  0.0000E+00  0.2400E+01
     15.943  0.0000E+00  0.2400E+01
     16.051  0.0000E+00  0.2400E+01
     16.159  0.0000E+00  0.2400E+01
     16.267  0.0000E+00  0.2400E+01
     16.375  0.0000E+00  0.2400E+01
     16.483  0.0000E+00  0.2400E+01
     16.590  0.0000E+00  0.2400E+01
     16.698  0.0000E+00  0.2400E+01
