    8    8   20    1
  0.9639682E+01  0.4256483E-09  0.4256483E-09  0.4256483E-09  0.5000000E-15
  1.000000000000000E-004
  CAR 
 Si                                      
     32      4     24
 
  0.0000000E+00  0.0000000E+00  0.0000000E+00  0.1250000E+00
    1      -14.178140
    2      -12.642115
    3      -12.642115
    4      -12.642115
    5       -1.365893
    6       -1.365893
    7       -1.365893
    8        1.333733
    9        1.333733
   10        1.333733
   11        1.333733
   12        1.333733
   13        1.333733
   14        2.665332
   15        2.665332
   16        2.665332
   17        7.008632
   18       11.505938
   19       11.505938
   20       11.505938
   21       12.013776
   22       12.013776
   23       12.013776
   24       15.227945
 
  0.5000000E+00  0.0000000E+00  0.0000000E+00  0.3750000E+00
    1      -13.433372
    2      -13.433372
    3      -12.591099
    4      -12.591099
    5       -0.252517
    6       -0.252517
    7       -0.252517
    8       -0.252517
    9        0.056828
   10        0.056828
   11        0.910086
   12        0.910086
   13        1.938007
   14        1.938007
   15        1.938007
   16        1.938007
   17       10.293579
   18       10.293579
   19       13.503902
   20       13.504372
   21       13.895425
   22       13.895425
   23       13.895426
   24       13.895429
 
  0.5000000E+00  0.5000000E+00  0.0000000E+00  0.3750000E+00
    1      -12.975167
    2      -12.975167
    3      -12.975167
    4      -12.975167
    5       -0.799574
    6       -0.799574
    7       -0.799574
    8       -0.799574
    9        0.692789
   10        0.692789
   11        0.692789
   12        0.692789
   13        2.032751
   14        2.032751
   15        2.032751
   16        2.032751
   17       11.702950
   18       11.702950
   19       11.702950
   20       11.702950
   21       14.044930
   22       14.044930
   23       14.044930
   24       14.044930
 
  0.5000000E+00  0.5000000E+00  0.5000000E+00  0.1250000E+00
    1      -12.903205
    2      -12.903205
    3      -12.903205
    4      -12.903205
    5       -1.904823
    6       -1.904823
    7       -1.904823
    8       -1.904823
    9        2.033500
   10        2.033500
   11        2.033500
   12        2.033500
   13        2.033500
   14        2.033500
   15        2.033500
   16        2.033500
   17       10.188411
   18       10.188411
   19       10.188411
   20       10.188411
   21       14.710271
   22       14.710271
   23       14.710271
   24       14.710271
