# ['Mg', 'O']

40 atoms
2 atom types

    0.0000     5.3376 xlo xhi
    0.0000     5.3376 ylo yhi
    0.0000    53.3755 zlo zhi

    0.0000     0.0000     0.0000 xy xz yz

Atoms

1 1     1.0000     2.6688     2.6688     0.0000
2 1     1.0000     2.6688     0.0000     2.6688
3 1     1.0000     0.0000     0.0000     0.0000
4 1     1.0000     0.0000     2.6688     2.6688
5 1     1.0000     2.6688     2.6688     5.3376
6 1     1.0000     2.6688     0.0000     8.0063
7 1     1.0000     0.0000     0.0000     5.3376
8 1     1.0000     0.0000     2.6688     8.0063
9 1     1.0000     2.6688     2.6688    10.6751
10 1     1.0000     2.6688     0.0000    13.3439
11 1     1.0000     0.0000     0.0000    10.6751
12 1     1.0000     0.0000     2.6688    13.3439
13 1     1.0000     2.6688     2.6688    16.0127
14 1     1.0000     2.6688     0.0000    18.6814
15 1     1.0000     0.0000     0.0000    16.0127
16 1     1.0000     0.0000     2.6688    18.6814
17 1     1.0000     2.6688     2.6688    21.3502
18 1     1.0000     2.6688     0.0000    24.0190
19 1     1.0000     0.0000     0.0000    21.3502
20 1     1.0000     0.0000     2.6688    24.0190
21 2     1.0000     0.0000     2.6688     0.0000
22 2     1.0000     2.6688     0.0000     0.0000
23 2     1.0000     2.6688     2.6688     2.6688
24 2     1.0000     0.0000     0.0000     2.6688
25 2     1.0000     0.0000     2.6688     5.3376
26 2     1.0000     2.6688     0.0000     5.3376
27 2     1.0000     2.6688     2.6688     8.0063
28 2     1.0000     0.0000     0.0000     8.0063
29 2     1.0000     0.0000     2.6688    10.6751
30 2     1.0000     2.6688     0.0000    10.6751
31 2     1.0000     2.6688     2.6688    13.3439
32 2     1.0000     0.0000     0.0000    13.3439
33 2     1.0000     0.0000     2.6688    16.0127
34 2     1.0000     2.6688     0.0000    16.0127
35 2     1.0000     2.6688     2.6688    18.6814
36 2     1.0000     0.0000     0.0000    18.6814
37 2     1.0000     0.0000     2.6688    21.3502
38 2     1.0000     2.6688     0.0000    21.3502
39 2     1.0000     2.6688     2.6688    24.0190
40 2     1.0000     0.0000     0.0000    24.0190
