LAMMPS (10 Feb 2015)
Reading data file ...
  triclinic box = (0 0 0) to (16.0127 16.0127 16.0127) with tilt (0 0 0)
  1 by 1 by 1 MPI processor grid
  reading atoms ...
  214 atoms
107 atoms in group magnesium
107 atoms in group oxygen
Setting atom values ...
  107 settings made for charge
Setting atom values ...
  107 settings made for charge
PPPM initialization ...
  G vector (1/distance) = 0.342334
  grid = 24 24 24
  stencil order = 5
  estimated absolute RMS force accuracy = 0.000108759
  estimated relative force accuracy = 7.5529e-06
  using double precision FFTs
  3d grid and FFT values/proc = 29791 13824
Neighbor list info ...
  1 neighbor list requests
  update every 1 steps, delay 0 steps, check yes
  master list distance cutoff = 11
Setting up minimization ...
Memory usage per processor = 7.83205 Mbytes
Step PotEng Lx Ly Lz Xy Xz Yz Press Pxx Pyy Pzz Pxy Pxz Pyz eatoms 
       0   -4126.0023      16.0127      16.0127      16.0127            0            0            0   -1154.3913   -940.40844   -940.40844    -1582.357   -194.85618 0.0061502645 0.0061502647   -4126.0023 
       1   -4145.1509      16.0127      16.0127      16.0127            0            0            0   -3486.6328   -3378.4334   -3378.4334   -3703.0315    20.916924 -0.003727105 -0.0037271045   -4145.1509 
       2   -4153.8666      16.0127      16.0127      16.0127            0            0            0   -2917.2075   -2762.0641   -2762.0641   -3227.4944    246.30406 -0.016377803 -0.016377802   -4153.8666 
       3   -4156.8743      16.0127      16.0127      16.0127            0            0            0   -1662.8076   -1414.5969   -1414.5969    -2159.229    366.04474  -0.02641832  -0.02641832   -4156.8743 
       4   -4159.4565      16.0127      16.0127      16.0127            0            0            0   -1377.3888   -1182.8588   -1182.8588   -1766.4486    253.36908 -0.030318657 -0.030318658   -4159.4565 
       5   -4162.2701      16.0127      16.0127      16.0127            0            0            0    261.72569    382.26559    382.26559    20.645903    167.75615 -0.042850353 -0.042850352   -4162.2701 
       6   -4165.8622      16.0127      16.0127      16.0127            0            0            0    3263.2218    3331.9217    3331.9217     3125.822    120.73256 -0.052937083 -0.052937083   -4165.8622 
       7   -4169.5358      16.0127      16.0127      16.0127            0            0            0    7471.1409    7518.1478    7518.1478    7377.1271    23.443714 -0.056523351 -0.056523351   -4169.5358 
       8   -4173.8691      16.0127      16.0127      16.0127            0            0            0    13010.083    13175.712    13175.712    12678.824   -140.18922 -0.047946771 -0.047946771   -4173.8691 
       9   -4180.2314      16.0127      16.0127      16.0127            0            0            0    20082.434    20495.219    20495.219    19256.866   -483.91762 0.0019592507  0.001959251   -4180.2314 
      10   -4187.4591      16.0127      16.0127      16.0127            0            0            0    25812.633    26698.994    26698.994    24039.912   -863.36302  0.081347435  0.081347435   -4187.4591 
      11   -4195.7852      16.0127      16.0127      16.0127            0            0            0    33439.147    34952.955    34952.955     30411.53   -1304.5691   0.32631783   0.32631783   -4195.7852 
      12   -4208.1581      16.0127      16.0127      16.0127            0            0            0     44538.72    47272.144    47272.144    39071.873   -2102.0274    1.0421976    1.0421976   -4208.1581 
      13    -4222.953      16.0127      16.0127      16.0127            0            0            0    62163.676    65484.745    65484.745    55521.536   -2926.9423    2.8872342    2.8872342    -4222.953 
      14   -4236.9473      16.0127      16.0127      16.0127            0            0            0    72459.476    76394.114    76394.114    64590.199    -3782.463    5.4870391    5.4870391   -4236.9473 
      15   -4250.1851      16.0127      16.0127      16.0127            0            0            0    88989.062    93226.249    93226.249    80514.686   -3740.4607     8.765493     8.765493   -4250.1851 
      16   -4262.0743      16.0127      16.0127      16.0127            0            0            0    100717.58    105027.96    105027.96    92096.818   -3168.7928     12.18495     12.18495   -4262.0743 
      17   -4274.2716      16.0127      16.0127      16.0127            0            0            0    115273.94    120197.91    120197.91    105425.99   -1710.5486    15.734602    15.734602   -4274.2716 
      18    -4289.103      16.0127      16.0127      16.0127            0            0            0    133980.93    139651.32    139651.32    122640.14    1442.5944    19.895869    19.895869    -4289.103 
      19   -4304.8852      16.0127      16.0127      16.0127            0            0            0    155874.48     162366.8     162366.8    142889.84    5307.0443    24.814772    24.814772   -4304.8852 
      20   -4320.8614      16.0127      16.0127      16.0127            0            0            0    174068.81    180092.03    180092.03    162022.37    8974.6553    27.222536    27.222536   -4320.8614 
      21   -4335.6327      16.0127      16.0127      16.0127            0            0            0    194904.16    201815.02    201815.02    181082.44    10060.158    26.697929    26.697929   -4335.6327 
      22   -4349.6638      16.0127      16.0127      16.0127            0            0            0    208390.79    215397.42    215397.42    194377.53    10982.241    26.721828    26.721828   -4349.6638 
      23   -4362.3828      16.0127      16.0127      16.0127            0            0            0    227787.32    236653.77    236653.77    210054.43    8714.6251    26.576365    26.576365   -4362.3828 
      24   -4372.6604      16.0127      16.0127      16.0127            0            0            0    236764.24    246276.81    246276.81    217739.09    7646.4925    32.973478    32.973478   -4372.6604 
      25   -4382.1096      16.0127      16.0127      16.0127            0            0            0    252010.79    262729.26    262729.26    230573.87    4909.3683    39.181771    39.181771   -4382.1096 
      26   -4391.5132      16.0127      16.0127      16.0127            0            0            0    258293.96    269480.43    269480.43    235921.03    4739.2635    49.617168    49.617168   -4391.5132 
      27   -4400.6145      16.0127      16.0127      16.0127            0            0            0    270207.43    282713.18    282713.18    245195.91    3214.5909    57.408153    57.408266   -4400.6145 
      28   -4408.1848      16.0127      16.0127      16.0127            0            0            0    269907.37    282378.57    282378.57    244964.98    2403.6377     67.76508    67.765028   -4408.1848 
      29   -4416.0746      16.0127      16.0127      16.0127            0            0            0    278682.67    292509.33    292509.33    251029.35   -950.09089    69.258002    69.258362   -4416.0746 
      30   -4424.9042      16.0127      16.0127      16.0127            0            0            0    281525.37    295167.17    295167.17    254241.76   -1928.5391     70.90457    70.904434   -4424.9042 
      31    -4430.151      16.0127      16.0127      16.0127            0            0            0     279349.2    293601.61    293601.61    250844.37   -761.23764    152.51888    152.52037    -4430.151 
      32   -4436.0357      16.0127      16.0127      16.0127            0            0            0    284870.37    298700.83    298700.83    257209.43   -1496.3037    193.33051    193.33147   -4436.0357 
      33   -4442.1894      16.0127      16.0127      16.0127            0            0            0     287268.3    301321.75    301321.75    259161.39    598.39176    254.40461    254.40389   -4442.1894 
      34   -4448.0477      16.0127      16.0127      16.0127            0            0            0    292856.83    308538.24    308538.24    261494.01    1985.6383    389.21715    389.21728   -4448.0477 
      35    -4454.218      16.0127      16.0127      16.0127            0            0            0    294568.36    310420.59    310420.59    262863.91    4816.0064    548.70777    548.70752    -4454.218 
      36   -4459.6532      16.0127      16.0127      16.0127            0            0            0    298957.41    315844.16    315844.15    265183.93    6151.0231    705.74449    705.74453   -4459.6532 
      37   -4464.6171      16.0127      16.0127      16.0127            0            0            0    300499.66    317449.17    317449.17    266600.63    8475.4885    699.40401    699.40658   -4464.6171 
      38   -4468.6651      16.0127      16.0127      16.0127            0            0            0    304201.95    321491.35    321491.34    269623.17    9369.1225    655.87549    655.87684   -4468.6651 
      39   -4472.7269      16.0127      16.0127      16.0127            0            0            0     304636.1     321712.6     321712.6    270483.12    11320.163    709.43413    709.43687   -4472.7269 
      40   -4476.4376      16.0127      16.0127      16.0127            0            0            0    307349.44    324491.56    324491.56     273065.2    12202.561    898.63439    898.63631   -4476.4376 
      41   -4479.9292      16.0127      16.0127      16.0127            0            0            0    307409.95    324320.63    324320.64    273588.57    12422.456    934.16594    934.16641   -4479.9292 
      42   -4484.5454      16.0127      16.0127      16.0127            0            0            0    310561.75    326797.96    326797.97    278089.32     14934.67     1179.945    1179.9503   -4484.5454 
      43   -4488.8774      16.0127      16.0127      16.0127            0            0            0    310972.18    326437.27    326437.27       280042    15244.955    1312.1725    1312.1743   -4488.8774 
      44   -4493.4937      16.0127      16.0127      16.0127            0            0            0    314600.95    328626.79     328626.8    286549.26    18576.468    1686.2351    1686.2418   -4493.4937 
      45   -4497.9582      16.0127      16.0127      16.0127            0            0            0    314647.91    327945.73    327945.73    288052.26    18407.517    1688.4329    1688.4346   -4497.9582 
      46   -4501.3342      16.0127      16.0127      16.0127            0            0            0    316144.07    328636.38    328636.37    291159.47     19155.57     1868.328    1868.3281   -4501.3342 
      47   -4504.5234      16.0127      16.0127      16.0127            0            0            0    315260.26    327887.69     327887.7     290005.4    19587.814    1548.0566    1548.0568   -4504.5234 
      48   -4507.6866      16.0127      16.0127      16.0127            0            0            0    317630.32    329171.71    329171.71    294547.53    20683.979     1927.641    1927.6453   -4507.6866 
      49   -4510.7606      16.0127      16.0127      16.0127            0            0            0    317060.53    328703.55    328703.56    293774.49    20701.161    1537.1783    1537.1782   -4510.7606 
      50   -4513.5166      16.0127      16.0127      16.0127            0            0            0     319891.1    330598.11    330598.12    298477.07    21412.263      1812.63    1812.6257   -4513.5166 
      51   -4515.9593      16.0127      16.0127      16.0127            0            0            0    318425.05    329885.19    329885.19    295504.75    20146.662    1032.6764    1032.6764   -4515.9593 
      52   -4518.6814      16.0127      16.0127      16.0127            0            0            0     321917.3    332271.17    332271.16    301209.57    20397.879    1279.1929     1279.198   -4518.6814 
      53   -4521.0171      16.0127      16.0127      16.0127            0            0            0    321565.06    332387.28    332387.31    299920.59    18585.077     1259.621    1259.6157   -4521.0171 
      54   -4522.9507      16.0127      16.0127      16.0127            0            0            0    324317.44    333448.43    333448.43    306055.46    18114.638    906.50533    906.50449   -4522.9507 
      55    -4524.414      16.0127      16.0127      16.0127            0            0            0    326428.28    335227.87    335227.85    308829.11    16847.014    504.82071      504.827    -4524.414 
      56   -4525.7261      16.0127      16.0127      16.0127            0            0            0    324841.87    335240.74    335240.75    304044.12    15510.184    455.15323    455.15581   -4525.7261 
      57   -4526.3434      16.0127      16.0127      16.0127            0            0            0    326927.36    336455.07    336455.11    307871.91    14876.569    1586.7481    1586.7508   -4526.3434 
      58   -4527.2693      16.0127      16.0127      16.0127            0            0            0    328592.11    336523.55    336523.57    312729.21    14054.667    1570.7202    1570.7157   -4527.2693 
      59   -4528.3115      16.0127      16.0127      16.0127            0            0            0       328334    336169.25    336169.24    312663.51    12165.819    702.70367    702.69601   -4528.3115 
      60   -4529.5696      16.0127      16.0127      16.0127            0            0            0    330905.69    338139.21    338139.21    316438.65    10095.845    824.21049    824.21183   -4529.5696 
      61   -4530.1709      16.0127      16.0127      16.0127            0            0            0    332684.43     338830.3    338830.31    320392.66    10383.776    1137.8604    1137.8586   -4530.1709 
      62   -4530.8099      16.0127      16.0127      16.0127            0            0            0    331632.36    337562.44    337562.46     319772.2    9961.4893     779.2298    779.21636   -4530.8099 
      63   -4531.5788      16.0127      16.0127      16.0127            0            0            0    332392.03    338030.79    338030.81    321114.49    10227.499    1083.5749    1083.5546   -4531.5788 
      64   -4532.0776      16.0127      16.0127      16.0127            0            0            0    332872.97    337687.99    337688.01    323242.91    9806.3163    777.84042    777.83936   -4532.0776 
      65    -4532.545      16.0127      16.0127      16.0127            0            0            0    330377.26    334994.98    334995.02    321141.79    7970.7279     1144.766    1144.7604    -4532.545 
      66   -4533.1288      16.0127      16.0127      16.0127            0            0            0    330393.03    334522.04    334522.07    322134.96    7708.8938    2144.3072    2144.2914   -4533.1288 
      67   -4534.0444      16.0127      16.0127      16.0127            0            0            0    331657.99    336124.21    336124.25    322725.51    6704.1542    1880.2072     1880.209   -4534.0444 
      68   -4534.8382      16.0127      16.0127      16.0127            0            0            0    332043.62    336808.92    336809.03    322512.92    4583.0331    1762.7536    1762.7234   -4534.8382 
      69   -4535.4882      16.0127      16.0127      16.0127            0            0            0    333798.31    338243.65    338243.75    324907.51    4090.5941    1150.3629    1150.3539   -4535.4882 
      70   -4536.0717      16.0127      16.0127      16.0127            0            0            0    334096.43    338276.81    338276.85    325735.62    4564.6782    1311.9182    1311.9295   -4536.0717 
      71   -4536.4507      16.0127      16.0127      16.0127            0            0            0    334008.65    338230.65    338230.79    325564.51    3456.7362    2079.5896    2079.5422   -4536.4507 
      72   -4536.9223      16.0127      16.0127      16.0127            0            0            0    334946.43    338627.83    338627.94    327583.53    1761.7544    1887.0237    1887.0467   -4536.9223 
      73   -4537.3933      16.0127      16.0127      16.0127            0            0            0    335143.83    338348.03    338347.98    328735.48    1919.7293    1263.0012      1263.11   -4537.3933 
      74    -4537.907      16.0127      16.0127      16.0127            0            0            0    334703.84    338151.69    338151.85    327807.98    729.74622    1012.3298    1012.2433    -4537.907 
      75   -4538.4444      16.0127      16.0127      16.0127            0            0            0    336949.65    340499.83    340499.79    329849.35   -827.61594    298.55036    298.60444   -4538.4444 
      76   -4539.0141      16.0127      16.0127      16.0127            0            0            0     337411.2    341454.22    341453.72    329325.68   -2037.2621   -549.35756   -549.08148   -4539.0141 
      77   -4539.4427      16.0127      16.0127      16.0127            0            0            0    336656.65    340850.95     340850.7     328268.3   -2379.5187   -627.28173   -627.40022   -4539.4427 
      78   -4539.8013      16.0127      16.0127      16.0127            0            0            0    337273.66    340727.95    340727.61    330365.44   -3128.1466   -693.59563   -693.62812   -4539.8013 
      79    -4540.247      16.0127      16.0127      16.0127            0            0            0    336735.06    340306.03    340305.67    329593.48    -5357.069   -1224.4499   -1224.1296    -4540.247 
      80   -4540.5863      16.0127      16.0127      16.0127            0            0            0    335404.68    339082.04    339081.93    328050.08   -4179.1551   -1290.8309   -1290.2219   -4540.5863 
      81   -4541.0643      16.0127      16.0127      16.0127            0            0            0    334323.81    337572.19    337572.02    327827.23    -3418.439   -1236.3407   -1235.3775   -4541.0643 
      82   -4541.6572      16.0127      16.0127      16.0127            0            0            0    334504.15    337164.63    337164.85    329182.97   -4763.2792   -1848.1966   -1847.1783   -4541.6572 
      83   -4542.2704      16.0127      16.0127      16.0127            0            0            0    333934.53     336023.2    336023.33    329757.06   -6349.8817   -1940.8467   -1939.5436   -4542.2704 
      84   -4542.8644      16.0127      16.0127      16.0127            0            0            0    335372.53    337600.61    337601.26    330915.72   -4904.9563   -1785.7382   -1783.4876   -4542.8644 
      85    -4543.357      16.0127      16.0127      16.0127            0            0            0    336287.68    338622.94    338623.72    331616.38   -6391.7274   -2189.5653   -2186.6043    -4543.357 
      86   -4543.8361      16.0127      16.0127      16.0127            0            0            0     336332.6    338529.59    338530.61     331937.6   -4866.8347   -2577.5487   -2573.5439   -4543.8361 
      87   -4544.3771      16.0127      16.0127      16.0127            0            0            0    335462.78    338087.48    338088.67    330212.19   -5589.3646   -2435.0968   -2428.4223   -4544.3771 
      88   -4545.3652      16.0127      16.0127      16.0127            0            0            0    336058.67    338589.24    338592.84    330993.94    -3984.821   -2763.1812   -2751.7921   -4545.3652 
      89   -4546.5735      16.0127      16.0127      16.0127            0            0            0    336144.16    338695.37    338701.59    331035.51   -4571.1323   -2218.2286   -2201.0779   -4546.5735 
      90   -4548.0106      16.0127      16.0127      16.0127            0            0            0     336492.6    338775.94    338784.54    331917.34   -4051.5911   -3046.8304   -3024.9597   -4548.0106 
      91   -4549.3814      16.0127      16.0127      16.0127            0            0            0    337721.82    340288.02    340297.64     332579.8   -5428.4886   -2694.9656   -2669.2639   -4549.3814 
      92   -4550.6619      16.0127      16.0127      16.0127            0            0            0    339600.76    342440.42    342450.57    333911.27   -6365.2822   -3992.4564   -3963.7381   -4550.6619 
      93   -4551.9457      16.0127      16.0127      16.0127            0            0            0    339716.83    343147.06    343157.91    332845.53   -6717.6911   -4692.3531   -4660.5693   -4551.9457 
      94   -4553.0998      16.0127      16.0127      16.0127            0            0            0    340238.39    343685.81     343697.4    333331.97   -7896.5824   -6016.8525   -5985.1249   -4553.0998 
      95   -4554.2003      16.0127      16.0127      16.0127            0            0            0    340022.53    343973.84    343985.48    332108.26   -8915.5974    -5863.104   -5832.6193   -4554.2003 
      96    -4555.151      16.0127      16.0127      16.0127            0            0            0    338041.01    342502.35    342509.65    329111.01   -8143.4218   -5769.7374   -5736.5035    -4555.151 
      97   -4556.0917      16.0127      16.0127      16.0127            0            0            0    337373.06    342366.37    342372.76    327380.06   -9987.4965   -5366.1248   -5330.8786   -4556.0917 
      98    -4556.604      16.0127      16.0127      16.0127            0            0            0    337475.03    342863.23    342875.54    326686.33   -10448.047   -5746.6089   -5707.7885    -4556.604 
      99   -4557.1692      16.0127      16.0127      16.0127            0            0            0    337984.12    343587.63     343598.7    326766.03   -10048.233   -6986.4274   -6937.3163   -4557.1692 
     100   -4558.0424      16.0127      16.0127      16.0127            0            0            0     338648.7    344878.41    344889.05    326178.64    -10263.37   -6904.8649   -6846.3239   -4558.0424 
     101   -4558.9132      16.0127      16.0127      16.0127            0            0            0    339188.03    345636.96    345645.56    326281.58   -11230.164   -5295.1065   -5222.7751   -4558.9132 
     102   -4559.5919      16.0127      16.0127      16.0127            0            0            0    339632.79     346478.5    346486.49    325933.39   -12317.295   -4593.9757   -4507.5908   -4559.5919 
     103   -4560.2514      16.0127      16.0127      16.0127            0            0            0    339550.66    345957.77    345964.22    326729.99   -10350.174   -4919.2834   -4803.5828   -4560.2514 
     104   -4560.9536      16.0127      16.0127      16.0127            0            0            0    340726.58    346966.26    346975.37    328238.11   -10305.407   -5405.6063   -5244.6503   -4560.9536 
     105   -4561.4719      16.0127      16.0127      16.0127            0            0            0    340917.92    347495.97     347508.2    327749.58   -11483.296    -4966.302   -4780.7719   -4561.4719 
     106   -4561.8972      16.0127      16.0127      16.0127            0            0            0    340925.94    347897.17    347914.25     326966.4    -11834.24   -5367.9588   -5122.7427   -4561.8972 
     107   -4562.2262      16.0127      16.0127      16.0127            0            0            0    341355.62    348352.38    348379.67    327334.82   -12108.538   -5435.3972   -5123.3191   -4562.2262 
     108   -4562.5669      16.0127      16.0127      16.0127            0            0            0     341819.4    348493.72    348526.15    328438.34   -12245.614   -6581.0613   -6144.9304   -4562.5669 
     109   -4562.7599      16.0127      16.0127      16.0127            0            0            0    342076.41    348558.02    348607.62    329063.58   -12949.933    -6905.229   -6353.0751   -4562.7599 
     110    -4562.967      16.0127      16.0127      16.0127            0            0            0    342011.26    348438.84     348508.2    329086.73   -12973.807   -7564.1914   -6803.9283    -4562.967 
     111   -4563.1418      16.0127      16.0127      16.0127            0            0            0    342717.91    349210.55    349342.13    329601.05   -13253.574   -7583.5312   -6581.3543   -4563.1418 
     112   -4563.3303      16.0127      16.0127      16.0127            0            0            0    343839.56    350056.36    350243.76    331218.57   -13279.488   -7627.9547     -6183.57   -4563.3303 
     113   -4563.5517      16.0127      16.0127      16.0127            0            0            0    344929.14    351394.96    351739.53    331652.93   -14194.602   -7545.9228   -5612.6377   -4563.5517 
     114   -4563.8206      16.0127      16.0127      16.0127            0            0            0     345810.1    352102.89    352608.47    332718.96   -14315.443   -7567.0586   -5350.1324   -4563.8206 
     115   -4564.0574      16.0127      16.0127      16.0127            0            0            0    346425.94    352372.82    352859.26    334045.76   -14836.305   -7893.3736   -5362.9387   -4564.0574 
     116   -4564.4189      16.0127      16.0127      16.0127            0            0            0    347106.77     353050.1    353876.71     334393.5   -15614.069   -7593.5206   -4857.9867   -4564.4189 
     117   -4564.8264      16.0127      16.0127      16.0127            0            0            0    346758.07    352789.46    353674.76       333810   -16124.261   -7118.0787   -3952.8659   -4564.8264 
     118   -4565.1869      16.0127      16.0127      16.0127            0            0            0    346747.26    352701.74    353920.69    333619.37   -16989.963   -6270.7731   -3051.8397   -4565.1869 
     119   -4565.4896      16.0127      16.0127      16.0127            0            0            0    347420.18    353119.23    354309.17    334832.13   -16574.973   -6298.3059   -3047.3677   -4565.4896 
     120    -4565.871      16.0127      16.0127      16.0127            0            0            0    348202.12    354022.08    354693.82    335890.45   -17275.622   -5743.6434   -2348.2205    -4565.871 
     121   -4566.4604      16.0127      16.0127      16.0127            0            0            0    348545.49    354484.46    355148.81    336003.19   -18161.284   -5068.7682   -1672.8605   -4566.4604 
     122    -4566.904      16.0127      16.0127      16.0127            0            0            0    349088.79     355167.4    355549.53    336549.45   -18735.354   -5663.6252   -2132.4379    -4566.904 
     123   -4567.3452      16.0127      16.0127      16.0127            0            0            0    349238.55     355585.3    355349.24    336781.11   -19483.838   -5792.1468    -1873.203   -4567.3452 
     124   -4567.9514      16.0127      16.0127      16.0127            0            0            0    348604.28    355365.55    354396.66    336050.62   -19444.734   -5635.0445   -1161.1343   -4567.9514 
     125    -4568.421      16.0127      16.0127      16.0127            0            0            0    349321.56    356774.36    355334.32    335855.99   -19225.527   -6187.0284   -817.59088    -4568.421 
     126   -4569.1621      16.0127      16.0127      16.0127            0            0            0    350008.36    357985.99    355990.67    336048.43   -19375.043   -6620.2852    262.44691   -4569.1621 
     127   -4569.5962      16.0127      16.0127      16.0127            0            0            0    350160.01    357903.86    355800.66    336775.52   -19433.071   -7439.5414     392.0638   -4569.5962 
     128   -4570.1301      16.0127      16.0127      16.0127            0            0            0    351454.72    359411.73    356841.68    338110.75   -20133.629   -8599.2394    1087.8462   -4570.1301 
     129   -4570.9345      16.0127      16.0127      16.0127            0            0            0    351044.44    358801.26    356732.91    337599.14   -21157.484   -9481.9166    2238.1785   -4570.9345 
     130   -4571.2604      16.0127      16.0127      16.0127            0            0            0    350575.84    358279.92    356474.62    336972.98   -20564.208    -9248.729    2471.7529   -4571.2604 
     131   -4571.5786      16.0127      16.0127      16.0127            0            0            0    351190.16    358655.99    357718.87    337195.61   -19100.866   -9220.7714    2718.1588   -4571.5786 
     132   -4572.0177      16.0127      16.0127      16.0127            0            0            0    351300.02    358646.02    358236.38    337017.67   -19150.413   -10069.562    3282.9609   -4572.0177 
     133   -4572.4068      16.0127      16.0127      16.0127            0            0            0    350872.22     357993.4     357464.5    337158.75   -19370.426   -11323.822     3092.448   -4572.4068 
     134   -4572.6625      16.0127      16.0127      16.0127            0            0            0    351264.85    358508.39    358017.19    337268.96   -20201.746   -11847.528    3627.2118   -4572.6625 
     135   -4572.9925      16.0127      16.0127      16.0127            0            0            0    350979.03    358092.93    358058.36    336785.81   -20060.799   -12509.009    4316.6526   -4572.9925 
     136   -4573.2159      16.0127      16.0127      16.0127            0            0            0    350080.44    356850.37    357683.69    335707.25   -20598.852   -12793.149    4300.8121   -4573.2159 
     137   -4573.4941      16.0127      16.0127      16.0127            0            0            0    350636.66    356888.74    358960.95    336060.28   -20133.498   -12920.007    4400.5841   -4573.4941 
     138   -4573.7512      16.0127      16.0127      16.0127            0            0            0    350874.77    357083.82    359216.37    336324.12   -19551.888   -13192.525    4509.8716   -4573.7512 
     139   -4573.9935      16.0127      16.0127      16.0127            0            0            0    350564.67    356752.09    358926.65    336015.26   -21324.663   -13363.749     4265.043   -4573.9935 
     140   -4574.2961      16.0127      16.0127      16.0127            0            0            0    351270.03    356898.94       360203    336708.16    -21644.45   -13519.504    3859.1448   -4574.2961 
     141   -4574.7175      16.0127      16.0127      16.0127            0            0            0    352078.33     357579.1    361799.13    336856.76   -21558.129   -12798.576    3847.1584   -4574.7175 
     142   -4574.9793      16.0127      16.0127      16.0127            0            0            0     351750.4    357574.07    361379.96    336297.17   -21070.307   -12154.286    4318.7633   -4574.9793 
     143   -4575.2863      16.0127      16.0127      16.0127            0            0            0    352576.23    357803.53    361860.62    338064.54    -19206.21   -11833.943    3841.0682   -4575.2863 
     144   -4575.5859      16.0127      16.0127      16.0127            0            0            0    353485.53    358502.66    362990.77    338963.16   -19195.603   -11134.843    3086.5014   -4575.5859 
     145   -4575.8543      16.0127      16.0127      16.0127            0            0            0    353654.77    358922.53    362801.77    339240.02   -19452.881   -10530.129    2906.4961   -4575.8543 
     146   -4576.0008      16.0127      16.0127      16.0127            0            0            0    353961.15    358908.94    362585.42    340389.08    -20066.35   -10283.612     2800.835   -4576.0008 
     147   -4576.0948      16.0127      16.0127      16.0127            0            0            0    353847.47    358857.54    362246.37     340438.5   -20309.735   -10040.265    2432.8559   -4576.0948 
     148   -4576.2113      16.0127      16.0127      16.0127            0            0            0    353680.67    359090.71    361551.15    340400.15   -20490.021   -9791.4114    1799.7917   -4576.2113 
     149   -4576.3614      16.0127      16.0127      16.0127            0            0            0    353672.42    359087.47    361504.66    340425.14   -20538.418   -9859.4011     1261.209   -4576.3614 
     150   -4576.5417      16.0127      16.0127      16.0127            0            0            0    353656.04    359525.01    361201.31    340241.81    -20817.55   -9298.0958    528.79041   -4576.5417 
     151   -4576.7129      16.0127      16.0127      16.0127            0            0            0    353794.89    359418.63     360936.6    341029.44   -20871.339   -8898.5698    371.57704   -4576.7129 
     152   -4576.8893      16.0127      16.0127      16.0127            0            0            0    354305.83    359291.24    361162.41    342463.83   -21791.997   -8643.5059    572.56952   -4576.8893 
     153   -4577.1405      16.0127      16.0127      16.0127            0            0            0    354752.91    359820.05    361466.77    342971.91    -22472.46   -8755.3672    307.90845   -4577.1405 
     154   -4577.4761      16.0127      16.0127      16.0127            0            0            0     355170.7    360398.01    362500.91    342613.18   -23069.625   -8897.0949    353.93644   -4577.4761 
     155   -4577.8401      16.0127      16.0127      16.0127            0            0            0    355614.11    360945.87    362909.94    342986.52   -23972.481   -8555.5602    691.85892   -4577.8401 
     156   -4578.2211      16.0127      16.0127      16.0127            0            0            0    355874.47    360872.13    363310.89     343440.4   -23750.521   -9111.1286    1325.0337   -4578.2211 
     157   -4578.6182      16.0127      16.0127      16.0127            0            0            0    356418.59    361971.67    363695.95    343588.14   -23698.354   -9017.8332     1715.621   -4578.6182 
     158   -4578.9677      16.0127      16.0127      16.0127            0            0            0    357273.75    362701.23    364815.02       344305   -23756.504    -9428.253    2039.2647   -4578.9677 
     159    -4579.296      16.0127      16.0127      16.0127            0            0            0     357463.7    363049.41    364969.37    344372.33   -24094.519   -9357.0302    2150.4213    -4579.296 
     160   -4579.5018      16.0127      16.0127      16.0127            0            0            0    356451.52    362243.91    363655.42    343455.22   -23743.413   -9014.0335    2397.2112   -4579.5018 
     161   -4579.6742      16.0127      16.0127      16.0127            0            0            0    355847.13    361507.25    362947.64    343086.49   -23011.349   -9022.9978    3002.5997   -4579.6742 
     162   -4579.9775      16.0127      16.0127      16.0127            0            0            0    355809.52    361933.55     362903.9     342591.1   -23754.792   -8465.2435    2829.3253   -4579.9775 
     163   -4580.2698      16.0127      16.0127      16.0127            0            0            0    355284.84     361999.4    362776.44    341078.69   -24041.253    -8492.476    2606.9911   -4580.2698 
     164   -4580.5014      16.0127      16.0127      16.0127            0            0            0    355218.99    362413.05    362323.08    340920.83   -22715.696   -8386.5067    2996.1669   -4580.5014 
     165   -4580.7063      16.0127      16.0127      16.0127            0            0            0    355877.69    363277.31    363183.62    341172.13   -22291.889   -7759.8897    2898.5182   -4580.7063 
     166   -4580.8475      16.0127      16.0127      16.0127            0            0            0    356289.74    363818.79     363652.7    341397.74   -21823.106   -7673.1227    3114.1052   -4580.8475 
     167   -4581.0569      16.0127      16.0127      16.0127            0            0            0    356679.51    364999.97    363718.22    341320.34   -21696.004    -6850.784    3107.8964   -4581.0569 
     168   -4581.2771      16.0127      16.0127      16.0127            0            0            0    357155.65    365868.57    364520.81    341077.57   -20625.228   -6516.7108    3201.8897   -4581.2771 
     169   -4581.5746      16.0127      16.0127      16.0127            0            0            0    357703.13       367023    364590.62    341495.77   -19730.159   -5889.2564    3024.1474   -4581.5746 
     170   -4581.8099      16.0127      16.0127      16.0127            0            0            0    358118.41    367549.65    364335.42    342470.17   -20444.324   -5585.6209    2248.9874   -4581.8099 
     171   -4582.0828      16.0127      16.0127      16.0127            0            0            0    358872.55    368214.53    365063.35    343339.78    -20264.33    -5879.475      1574.12   -4582.0828 
     172   -4582.3066      16.0127      16.0127      16.0127            0            0            0    359304.98    369579.74    365020.03    343315.18   -20040.009   -5287.1388         1421   -4582.3066 
     173   -4582.6057      16.0127      16.0127      16.0127            0            0            0    359963.37    371131.69     365022.2    343736.23   -20392.064   -5019.1232     1681.864   -4582.6057 
     174   -4582.9513      16.0127      16.0127      16.0127            0            0            0    361363.77    373040.73    366029.32    345021.26   -21036.711   -4287.7501    410.73674   -4582.9513 
     175   -4583.3181      16.0127      16.0127      16.0127            0            0            0    362100.68    374625.35    366021.64    345655.05   -20220.464   -3488.1087    588.26109   -4583.3181 
     176   -4583.6817      16.0127      16.0127      16.0127            0            0            0     361555.3    374327.99    364651.15    345686.77   -19554.646   -3552.5268    1305.8417   -4583.6817 
     177   -4584.1563      16.0127      16.0127      16.0127            0            0            0    362245.37    374670.83    365314.28       346751   -19773.193   -3551.5904    47.512301   -4584.1563 
     178   -4584.7104      16.0127      16.0127      16.0127            0            0            0    362482.06    375001.41    365305.94    347138.83   -19469.554    -3565.578   -156.91378   -4584.7104 
     179   -4585.3279      16.0127      16.0127      16.0127            0            0            0    361828.58    374684.46    363858.63    346942.65   -19372.292   -3204.1728    25.409894   -4585.3279 
     180   -4585.6886      16.0127      16.0127      16.0127            0            0            0    362264.83    374772.46    364164.27    347857.76   -19246.321   -3826.9701    412.30203   -4585.6886 
     181   -4586.0393      16.0127      16.0127      16.0127            0            0            0    362732.91    375229.92    364077.28    348891.55   -19353.525   -3954.8049    333.28796   -4586.0393 
     182   -4586.3745      16.0127      16.0127      16.0127            0            0            0     362592.1    375247.51    363421.57    349107.23   -19761.358   -3565.3751   -73.803928   -4586.3745 
     183   -4586.6461      16.0127      16.0127      16.0127            0            0            0    362924.89    374508.36     364017.6     350248.7   -19664.401   -4255.7373   -284.38002   -4586.6461 
     184   -4587.1455      16.0127      16.0127      16.0127            0            0            0    363457.14    374171.45    364518.45    351681.52   -19546.137   -4759.2403   -615.81872   -4587.1455 
     185    -4587.412      16.0127      16.0127      16.0127            0            0            0    363115.54    374409.09    363490.31    351447.22   -19979.641   -4450.3484   -311.09885    -4587.412 
     186   -4587.8073      16.0127      16.0127      16.0127            0            0            0    363019.88    373880.53    363224.19    351954.92    -20393.94   -5286.6362     538.6086   -4587.8073 
     187   -4588.3949      16.0127      16.0127      16.0127            0            0            0    363628.85    373767.57     363958.2    353160.77   -20669.884   -5737.7655    281.15314   -4588.3949 
     188   -4588.6296      16.0127      16.0127      16.0127            0            0            0    364020.89    374559.47    363831.86    353671.34   -20491.761   -5280.4507   -95.387839   -4588.6296 
     189   -4588.8969      16.0127      16.0127      16.0127            0            0            0    365040.48    375112.43    364819.29    355189.74    -19724.67   -5783.7454   -178.08145   -4588.8969 
     190   -4589.2416      16.0127      16.0127      16.0127            0            0            0    366076.63    375498.42     365426.1    357305.38   -19870.782   -6200.1353    -20.21145   -4589.2416 
     191   -4589.5832      16.0127      16.0127      16.0127            0            0            0    366458.27    376396.08    364635.14     358343.6   -19795.519    -5704.364    511.84914   -4589.5832 
     192   -4589.8277      16.0127      16.0127      16.0127            0            0            0    366877.31    376540.61    364577.21     359514.1   -19426.678   -5480.3536    886.54078   -4589.8277 
     193   -4589.9476      16.0127      16.0127      16.0127            0            0            0       367375    377103.78    364471.07    360550.14   -18966.774   -4891.4132    862.15012   -4589.9476 
     194   -4590.1018      16.0127      16.0127      16.0127            0            0            0    367894.04    377562.86    364428.35    361690.93   -18244.136   -4335.0898    1373.6066   -4590.1018 
     195   -4590.2124      16.0127      16.0127      16.0127            0            0            0    367747.08     376718.9    363945.51    362576.82   -18679.266     -3955.05    1557.5838   -4590.2124 
     196   -4590.2895      16.0127      16.0127      16.0127            0            0            0    367616.09    376468.12    363497.95    362882.22   -18253.974   -3618.0073    1188.4511   -4590.2895 
     197    -4590.351      16.0127      16.0127      16.0127            0            0            0    367422.58    376281.73     363103.1    362882.91   -17942.278    -3386.661    1172.0943    -4590.351 
     198   -4590.4023      16.0127      16.0127      16.0127            0            0            0    367203.42     376281.2    362430.68    362898.38   -17729.147    -3315.317    1157.3515   -4590.4023 
     199   -4590.4459      16.0127      16.0127      16.0127            0            0            0    367172.97    376286.85    362181.29    363050.77   -17188.374   -3686.0624    1285.2666   -4590.4459 
     200   -4590.4836      16.0127      16.0127      16.0127            0            0            0     367231.8    376357.33    361936.75    363401.32   -17138.964   -3444.9118    1554.8187   -4590.4836 
     201   -4590.5148      16.0127      16.0127      16.0127            0            0            0    367377.92    376821.64     361593.8    363718.32   -16744.083   -3320.8328    1562.8819   -4590.5148 
     202   -4590.5405      16.0127      16.0127      16.0127            0            0            0    367542.54    376848.87    361513.82    364264.92   -16442.927   -3196.0483    1806.1841   -4590.5405 
     203   -4590.5623      16.0127      16.0127      16.0127            0            0            0    367601.97     376915.1    361262.27    364628.55    -16159.97   -2881.8177    1991.5724   -4590.5623 
     204   -4590.5803      16.0127      16.0127      16.0127            0            0            0    367595.63    377008.98    361002.81     364775.1   -15951.669   -2898.2486    2095.2467   -4590.5803 
     205   -4590.5977      16.0127      16.0127      16.0127            0            0            0    367538.32    376997.63    360598.88    365018.45   -15907.741   -2828.5643    2146.5497   -4590.5977 
     206   -4590.6125      16.0127      16.0127      16.0127            0            0            0    367482.52    377029.74     360235.1    365182.72   -15466.016   -2565.6856    2149.9821   -4590.6125 
     207   -4590.6242      16.0127      16.0127      16.0127            0            0            0    367451.02    376995.75     360047.1    365310.21   -15247.426   -2458.8594    2302.1698   -4590.6242 
     208   -4590.6334      16.0127      16.0127      16.0127            0            0            0    367503.29    376988.88    360046.53    365474.45   -15182.639   -2414.2147    2369.6326   -4590.6334 
     209   -4590.6402      16.0127      16.0127      16.0127            0            0            0    367565.37    377100.21    360046.21    365549.71   -15113.165   -2428.8377    2229.1265   -4590.6402 
     210   -4590.6468      16.0127      16.0127      16.0127            0            0            0    367548.26    377106.39    359881.41    365656.97   -15126.806   -2402.8422    2190.7622   -4590.6468 
     211    -4590.653      16.0127      16.0127      16.0127            0            0            0    367460.57    376940.62    359690.38    365750.72   -15077.719   -2419.7347    2326.5824    -4590.653 
     212    -4590.659      16.0127      16.0127      16.0127            0            0            0    367397.66    377057.71    359423.29    365711.98   -15040.121   -2402.8854    2166.2632    -4590.659 
     213   -4590.6643      16.0127      16.0127      16.0127            0            0            0    367399.82    377110.59    359255.42    365833.45   -15128.317   -2413.8474    2146.4189   -4590.6643 
     214   -4590.6697      16.0127      16.0127      16.0127            0            0            0    367349.62     377218.2    359095.81    365734.85   -15094.571   -2420.4396     2067.229   -4590.6697 
     215    -4590.676      16.0127      16.0127      16.0127            0            0            0    367251.47    377315.53    358732.95    365705.92   -15090.698    -2397.288    1883.0203    -4590.676 
     216   -4590.6842      16.0127      16.0127      16.0127            0            0            0    367149.52    377234.52     358332.6    365881.42   -15153.876   -2468.9632    1716.3554   -4590.6842 
     217   -4590.7105      16.0127      16.0127      16.0127            0            0            0    366902.24       377598    357127.85    365980.88   -15477.922   -2556.1192    979.02473   -4590.7105 
     218   -4590.7617      16.0127      16.0127      16.0127            0            0            0    366929.72    378179.85    356136.42     366472.9   -15697.897   -2594.2233     458.1867   -4590.7617 
     219   -4590.8649      16.0127      16.0127      16.0127            0            0            0     367457.8    379072.02    355621.22    367680.15    -15585.71   -2552.8523    167.86709   -4590.8649 
     220   -4590.9267      16.0127      16.0127      16.0127            0            0            0    367835.63    379802.89    355552.16    368151.83   -15223.729   -2251.4707   -116.35167   -4590.9267 
     221   -4591.0045      16.0127      16.0127      16.0127            0            0            0    367807.25    379630.02    355549.48    368242.27   -15459.534   -2483.6243   -155.90771   -4591.0045 
     222   -4591.1112      16.0127      16.0127      16.0127            0            0            0    367958.94    379528.21    355693.07    368655.54   -15608.199   -2866.6835   -176.35906   -4591.1112 
     223   -4591.1828      16.0127      16.0127      16.0127            0            0            0    367877.15    379398.01    355700.02    368533.43   -15459.979    -2761.126   -61.164044   -4591.1828 
     224   -4591.2523      16.0127      16.0127      16.0127            0            0            0     368036.6    379529.89    355588.62     368991.3   -15505.974   -3241.3573    37.181207   -4591.2523 
     225   -4591.3328      16.0127      16.0127      16.0127            0            0            0    368180.27    379851.68    355553.57    369135.57   -15681.301   -3326.1556   -199.82299   -4591.3328 
     226   -4591.4476      16.0127      16.0127      16.0127            0            0            0    368243.92    379904.78    355546.69    369280.29   -16140.045   -3239.2503    252.37655   -4591.4476 
     227   -4591.6058      16.0127      16.0127      16.0127            0            0            0    368287.58    379893.25    355700.09    369269.41   -15950.751    -3588.484    592.60064   -4591.6058 
     228   -4591.7618      16.0127      16.0127      16.0127            0            0            0    368361.44    379878.15    356083.17    369123.01   -15444.603   -3592.4068    463.56129   -4591.7618 
     229    -4591.886      16.0127      16.0127      16.0127            0            0            0    368781.59    379601.99    356830.29    369912.49   -15397.521   -4033.1878    991.75889    -4591.886 
     230   -4591.9802      16.0127      16.0127      16.0127            0            0            0    369176.92    379533.52    357462.22    370535.03   -15299.599   -4139.5024    1214.1757   -4591.9802 
     231   -4592.0746      16.0127      16.0127      16.0127            0            0            0    369729.13    379319.34    358754.06    371113.98   -14746.469   -4192.2676    1094.8264   -4592.0746 
     232   -4592.1562      16.0127      16.0127      16.0127            0            0            0     370156.9    379182.83    359660.05    371627.82   -14689.053   -4432.7418    932.97196   -4592.1562 
     233   -4592.2277      16.0127      16.0127      16.0127            0            0            0    370306.74    378985.91     360322.1     371612.2   -14551.478   -4263.6109    600.32197   -4592.2277 
     234    -4592.308      16.0127      16.0127      16.0127            0            0            0    370419.38    378907.86    360590.82    371759.45   -14214.647   -3825.7385    171.11861    -4592.308 
     235   -4592.3755      16.0127      16.0127      16.0127            0            0            0    370742.88    378639.57     361150.6    372438.48   -14032.484   -3974.9203   -126.64194   -4592.3755 
     236   -4592.4277      16.0127      16.0127      16.0127            0            0            0    370996.53    378556.89    361508.23    372924.47   -14061.348   -3654.7815   -737.92334   -4592.4277 
     237   -4592.4745      16.0127      16.0127      16.0127            0            0            0    371347.83    378548.82    362001.53    373493.13   -14103.517   -3503.2055   -1265.4808   -4592.4745 
     238   -4592.5236      16.0127      16.0127      16.0127            0            0            0    371620.26       378425    362516.31    373919.47   -14211.196   -3498.5518   -1708.6953   -4592.5236 
     239   -4592.5693      16.0127      16.0127      16.0127            0            0            0    371871.49     378264.9     362911.9    374437.66   -14273.071   -3279.4759   -2302.0595   -4592.5693 
     240   -4592.6101      16.0127      16.0127      16.0127            0            0            0    372059.98    378606.14    362870.74    374703.05   -14116.163    -3097.689   -2781.4364   -4592.6101 
     241   -4592.6491      16.0127      16.0127      16.0127            0            0            0    372182.76       378548    363257.09    374743.21   -13756.693   -3246.3369   -2804.0963   -4592.6491 
     242   -4592.6888      16.0127      16.0127      16.0127            0            0            0    372271.29    378665.73    363452.86    374695.29   -13522.184    -3150.753   -2999.0964   -4592.6888 
     243   -4592.7301      16.0127      16.0127      16.0127            0            0            0    372417.32     378795.4    363983.66     374472.9   -13218.169   -3114.2637   -3194.9679   -4592.7301 
     244   -4592.7679      16.0127      16.0127      16.0127            0            0            0     372432.8    378734.07    364303.22    374261.11   -13044.606   -3233.6893   -3169.3588   -4592.7679 
     245   -4592.8039      16.0127      16.0127      16.0127            0            0            0    372456.31    378634.58    364660.01    374074.32   -12887.447   -3260.2514   -3179.5605   -4592.8039 
     246   -4592.8357      16.0127      16.0127      16.0127            0            0            0    372566.26       378855    364790.62    374053.16   -12746.583   -3185.2641   -3042.8078   -4592.8357 
     247   -4592.8655      16.0127      16.0127      16.0127            0            0            0    372745.05    378834.54     365020.3     374380.3   -12627.246   -3251.8439   -2752.1454   -4592.8655 
     248   -4592.8942      16.0127      16.0127      16.0127            0            0            0    372820.36    378979.64    365011.81    374469.63   -12362.148   -3173.2298   -2561.7465   -4592.8942 
     249   -4592.9194      16.0127      16.0127      16.0127            0            0            0    372978.85    379175.56     365104.3    374656.69   -12184.266   -3075.3401    -2360.499   -4592.9194 
     250   -4592.9419      16.0127      16.0127      16.0127            0            0            0    373054.12    379395.96    364974.82    374791.58   -12335.017   -2893.7067   -2168.2069   -4592.9419 
     251   -4592.9607      16.0127      16.0127      16.0127            0            0            0    373097.23    379566.88    365106.01    374618.81   -12362.063   -2914.5119   -1912.5091   -4592.9607 
     252   -4592.9774      16.0127      16.0127      16.0127            0            0            0       373160    379998.84    365052.33    374428.82   -12409.721   -2882.3874   -1833.2604   -4592.9774 
     253   -4592.9934      16.0127      16.0127      16.0127            0            0            0    373289.96    380284.85    365195.66    374389.38    -12506.47   -2784.3819   -1758.4588   -4592.9934 
     254   -4593.0113      16.0127      16.0127      16.0127            0            0            0    373368.99    380602.85     365131.7    374372.42    -12537.82   -2678.6219   -1504.2537   -4593.0113 
     255   -4593.0279      16.0127      16.0127      16.0127            0            0            0    373415.17    380721.37    365072.41    374451.73   -12629.891   -2650.7853   -1200.9736   -4593.0279 
     256   -4593.0438      16.0127      16.0127      16.0127            0            0            0    373490.93    380948.47    364897.67    374626.64   -12802.323   -2484.4807    -922.9738   -4593.0438 
     257   -4593.0584      16.0127      16.0127      16.0127            0            0            0    373648.93     381198.6    364878.49     374869.7   -12865.732   -2427.5645    -568.0902   -4593.0584 
     258   -4593.0736      16.0127      16.0127      16.0127            0            0            0    373713.43    381432.67    364685.32     375022.3   -12962.428   -2354.9717   -280.31965   -4593.0736 
     259   -4593.0882      16.0127      16.0127      16.0127            0            0            0    373784.97    381528.07    364652.33    375174.51   -13034.995   -2420.2042   -56.918907   -4593.0882 
     260   -4593.1025      16.0127      16.0127      16.0127            0            0            0    373797.39    381593.03    364503.29    375295.85   -13292.019   -2431.6036    49.051892   -4593.1025 
     261   -4593.1164      16.0127      16.0127      16.0127            0            0            0    373814.02    381527.61    364403.13    375511.31   -13591.669   -2613.9253    228.92879   -4593.1164 
     262   -4593.1316      16.0127      16.0127      16.0127            0            0            0    373826.31    381564.08    364080.01    375834.83   -13964.511   -2681.1375    209.86261   -4593.1316 
     263   -4593.1469      16.0127      16.0127      16.0127            0            0            0    373879.61    381514.23    363983.56    376141.05   -14420.364   -2781.5122    152.64784   -4593.1469 
     264   -4593.1646      16.0127      16.0127      16.0127            0            0            0    374093.38    381772.19    363936.76     376571.2   -14932.513   -2929.8206    106.42142   -4593.1646 
     265   -4593.1836      16.0127      16.0127      16.0127            0            0            0    374326.12    382007.72    363955.14    377015.51   -15358.758   -3080.0321   -23.542948   -4593.1836 
     266    -4593.203      16.0127      16.0127      16.0127            0            0            0    374457.35    382121.64    363958.79    377291.62   -15781.471   -2906.1686   -301.85675    -4593.203 
     267   -4593.2246      16.0127      16.0127      16.0127            0            0            0    374573.38    382325.11    363951.53     377443.5   -16065.173     -2953.41    -302.8021   -4593.2246 
     268   -4593.2472      16.0127      16.0127      16.0127            0            0            0     374604.2    382534.39     363726.6     377551.6   -16429.134   -2899.7555   -365.44737   -4593.2472 
     269   -4593.2709      16.0127      16.0127      16.0127            0            0            0    374562.31    382589.52    363564.25    377533.17   -16779.851   -2910.6103   -452.83817   -4593.2709 
     270   -4593.2977      16.0127      16.0127      16.0127            0            0            0    374546.03    382914.73    363254.11    377469.26   -17046.354   -2749.7023   -501.16869   -4593.2977 
     271   -4593.3256      16.0127      16.0127      16.0127            0            0            0    374663.56    383264.53    363208.79    377517.36   -17197.899    -2708.526   -489.97348   -4593.3256 
     272   -4593.3611      16.0127      16.0127      16.0127            0            0            0    375021.73     384086.5    363192.82    377785.87   -17217.156   -2658.4081   -876.04834   -4593.3611 
     273   -4593.4066      16.0127      16.0127      16.0127            0            0            0    375564.52    385084.25     363452.3       378157    -17234.05    -2840.298   -1008.2436   -4593.4066 
     274   -4593.4734      16.0127      16.0127      16.0127            0            0            0    376169.15    386334.65    363654.34    378518.48   -17065.904   -2955.0243   -1505.6157   -4593.4734 
     275   -4593.6019      16.0127      16.0127      16.0127            0            0            0    376676.87       387138    363849.69    379042.92   -17065.592   -3161.2051     -2097.59   -4593.6019 
     276   -4593.8001      16.0127      16.0127      16.0127            0            0            0    377259.09    387924.88     364131.7     379720.7   -16885.383   -3225.2984   -1933.9227   -4593.8001 
     277   -4594.0045      16.0127      16.0127      16.0127            0            0            0    377742.07    388216.41    364314.58    380695.22   -17154.672   -3271.8261   -2394.0086   -4594.0045 
     278   -4594.1892      16.0127      16.0127      16.0127            0            0            0    378323.27    388758.78    364571.21    381639.82   -16829.095   -2851.9115   -2622.1198   -4594.1892 
     279   -4594.3445      16.0127      16.0127      16.0127            0            0            0     378648.9    388818.98    364663.54    382464.17   -16784.657   -2385.3788   -2482.8441   -4594.3445 
     280   -4594.4534      16.0127      16.0127      16.0127            0            0            0    378935.63    388727.46    364599.16    383480.27   -17015.897   -2009.3041   -2682.9977   -4594.4534 
     281   -4594.5315      16.0127      16.0127      16.0127            0            0            0    378981.19    388024.26    365037.05    383882.25   -17175.473   -1790.9374   -2643.7481   -4594.5315 
     282   -4594.5994      16.0127      16.0127      16.0127            0            0            0    378827.95    387642.46    364951.66    383889.73   -17024.115   -1735.1446   -2339.4092   -4594.5994 
     283   -4594.6522      16.0127      16.0127      16.0127            0            0            0     378556.3     386719.6    364979.35    383969.95   -17051.437   -1777.7811   -2126.4673   -4594.6522 
     284   -4594.7182      16.0127      16.0127      16.0127            0            0            0     378299.3    386113.28    364655.64    384128.99   -16626.266   -1633.1731   -1834.7478   -4594.7182 
     285   -4594.7664      16.0127      16.0127      16.0127            0            0            0    378263.87    385622.56    364758.17    384410.89   -16376.284   -1738.9975   -969.25532   -4594.7664 
     286    -4594.823      16.0127      16.0127      16.0127            0            0            0    378284.35    385369.02    364684.39    384799.65   -16080.211   -1481.4456   -321.00928    -4594.823 
     287   -4594.8689      16.0127      16.0127      16.0127            0            0            0    378519.36    385210.95    364831.99    385515.15   -15828.518   -1134.6412    303.97164   -4594.8689 
     288   -4594.9138      16.0127      16.0127      16.0127            0            0            0    378976.02    385810.17    365024.43    386093.46   -15588.938   -908.18102    691.33955   -4594.9138 
     289   -4594.9519      16.0127      16.0127      16.0127            0            0            0    379318.88    385774.93    365561.54    386620.17   -15404.489    -821.3449    1190.0319   -4594.9519 
     290   -4594.9869      16.0127      16.0127      16.0127            0            0            0     379593.8    385848.56    366011.98    386920.87   -15468.625   -547.40605     1135.358   -4594.9869 
     291   -4595.0185      16.0127      16.0127      16.0127            0            0            0    379863.65    385918.69    366406.98    387265.28   -15404.825   -449.41775    1090.4986   -4595.0185 
     292    -4595.047      16.0127      16.0127      16.0127            0            0            0    379915.14    386056.12    366548.69    387140.61   -15387.567   -439.72812    757.49337    -4595.047 
     293   -4595.0718      16.0127      16.0127      16.0127            0            0            0    379757.36    385780.28    366571.22    386920.59   -15508.913    -545.3607     680.2222   -4595.0718 
     294   -4595.0915      16.0127      16.0127      16.0127            0            0            0    379614.66    385642.62    366370.63    386830.72   -15727.202   -664.53683     242.9199   -4595.0915 
     295   -4595.1068      16.0127      16.0127      16.0127            0            0            0    379584.93    385511.88    366424.97    386817.93   -15765.761   -948.84823    133.02346   -4595.1068 
     296    -4595.121      16.0127      16.0127      16.0127            0            0            0    379468.94    385642.39    366229.07    386535.35   -15913.501   -1073.7668   -180.59039    -4595.121 
     297   -4595.1326      16.0127      16.0127      16.0127            0            0            0     379377.6    385578.96    366159.07    386394.77   -15984.096   -1103.7713   -374.87313   -4595.1326 
     298   -4595.1438      16.0127      16.0127      16.0127            0            0            0    379372.24    385783.36    366079.17    386254.18   -16076.478   -1258.8351   -500.19338   -4595.1438 
     299   -4595.1526      16.0127      16.0127      16.0127            0            0            0    379357.91    385761.36    366074.78    386237.58   -16207.396   -1297.6531   -532.36964   -4595.1526 
     300   -4595.1605      16.0127      16.0127      16.0127            0            0            0    379303.24    385765.75    365974.32    386169.66   -16135.176   -1173.7665   -637.97791   -4595.1605 
     301   -4595.1667      16.0127      16.0127      16.0127            0            0            0    379225.88    385580.53    365899.53    386197.59    -16184.18   -1125.4413    -611.7514   -4595.1667 
     302   -4595.1729      16.0127      16.0127      16.0127            0            0            0    379193.44     385575.9    365812.13     386192.3   -16218.644   -988.04422   -646.21531   -4595.1729 
     303   -4595.1778      16.0127      16.0127      16.0127            0            0            0    379227.45    385492.14     365901.2       386289   -16193.566   -987.29679   -656.76878   -4595.1778 
     304   -4595.1821      16.0127      16.0127      16.0127            0            0            0    379237.31    385466.35    365885.48    386360.09   -16192.282   -948.64716   -730.77937   -4595.1821 
     305   -4595.1854      16.0127      16.0127      16.0127            0            0            0    379252.37    385356.15    365984.46    386416.49   -16219.322     -905.142   -773.37146   -4595.1854 
     306   -4595.1884      16.0127      16.0127      16.0127            0            0            0    379309.14    385369.47    366101.86     386456.1   -16291.953   -930.77274   -900.69845   -4595.1884 
     307   -4595.1912      16.0127      16.0127      16.0127            0            0            0    379356.45    385322.61    366222.92    386523.81   -16276.707   -970.80331      -942.33   -4595.1912 
     308   -4595.1935      16.0127      16.0127      16.0127            0            0            0    379377.02    385291.56    366334.09    386505.39   -16258.942    -1054.091   -1079.2564   -4595.1935 
     309   -4595.1962      16.0127      16.0127      16.0127            0            0            0     379449.2    385254.37    366535.08    386558.15    -16234.24   -1078.2088   -1077.8119   -4595.1962 
     310   -4595.1982      16.0127      16.0127      16.0127            0            0            0    379520.02    385338.29     366699.4    386522.38   -16200.615    -1057.558   -1071.2566   -4595.1982 
     311   -4595.2001      16.0127      16.0127      16.0127            0            0            0    379564.24    385347.38    366802.46    386542.87   -16156.138   -1100.8991   -1001.2074   -4595.2001 
     312   -4595.2016      16.0127      16.0127      16.0127            0            0            0    379586.71    385393.06    366864.52    386502.55   -16187.849   -1068.8206   -1019.2194   -4595.2016 
     313   -4595.2028      16.0127      16.0127      16.0127            0            0            0    379619.27    385420.18    366943.19    386494.45   -16203.239   -1055.1563   -936.49305   -4595.2028 
     314   -4595.2039      16.0127      16.0127      16.0127            0            0            0    379642.43    385456.01     366971.6    386499.69   -16234.525   -1039.8619   -958.75149   -4595.2039 
     315   -4595.2051      16.0127      16.0127      16.0127            0            0            0    379658.64    385442.83     366992.6    386540.49   -16259.973   -1022.2362   -982.58642   -4595.2051 
     316   -4595.2064      16.0127      16.0127      16.0127            0            0            0    379696.98    385493.93    367005.77    386591.23   -16308.004   -1035.2818   -1004.8119   -4595.2064 
     317   -4595.2073      16.0127      16.0127      16.0127            0            0            0    379751.48    385504.09    367106.42    386643.92   -16321.752   -1045.1298   -1029.4244   -4595.2073 
     318    -4595.208      16.0127      16.0127      16.0127            0            0            0    379789.87    385518.86    367183.04    386667.71   -16296.454   -1041.2674   -1088.2533    -4595.208 
     319   -4595.2089      16.0127      16.0127      16.0127            0            0            0    379824.35    385485.82    367256.89    386730.35   -16317.349   -1060.1623   -1122.7792   -4595.2089 
     320   -4595.2095      16.0127      16.0127      16.0127            0            0            0    379881.04    385573.06    367326.94    386743.13   -16294.933   -1079.2537    -1140.837   -4595.2095 
     321   -4595.2101      16.0127      16.0127      16.0127            0            0            0    379930.15    385591.01    367428.41    386771.04   -16284.563   -1092.9975   -1126.3914   -4595.2101 
     322   -4595.2108      16.0127      16.0127      16.0127            0            0            0    379960.77    385618.23    367497.35    386766.72   -16270.861    -1085.538   -1156.5367   -4595.2108 
     323   -4595.2114      16.0127      16.0127      16.0127            0            0            0    380006.17    385635.05    367566.84    386816.62   -16248.285   -1109.5905   -1184.6203   -4595.2114 
     324   -4595.2118      16.0127      16.0127      16.0127            0            0            0    380051.42    385694.96    367602.19    386857.09   -16240.786   -1120.7906   -1216.8739   -4595.2118 
     325   -4595.2122      16.0127      16.0127      16.0127            0            0            0    380066.54    385695.48    367662.38    386841.75   -16230.073   -1119.4667   -1228.2852   -4595.2122 
     326   -4595.2128      16.0127      16.0127      16.0127            0            0            0     380072.8    385709.98    367687.18    386821.24   -16206.053   -1126.5652   -1278.2565   -4595.2128 
     327   -4595.2133      16.0127      16.0127      16.0127            0            0            0    380087.41    385707.21    367709.42    386845.59   -16165.573    -1126.844   -1317.4838   -4595.2133 
     328   -4595.2137      16.0127      16.0127      16.0127            0            0            0    380099.45    385695.33    367747.56    386855.45   -16134.768   -1110.1344   -1372.2054   -4595.2137 
     329   -4595.2138      16.0127      16.0127      16.0127            0            0            0    380115.02    385669.83    367792.52    386882.72   -16105.243    -1085.748   -1382.1833   -4595.2138 
     330   -4595.2142      16.0127      16.0127      16.0127            0            0            0     380140.8       385704    367825.06    386893.33   -16085.984   -1057.1467   -1433.7934   -4595.2142 
     331   -4595.2144      16.0127      16.0127      16.0127            0            0            0    380185.01    385717.94    367871.69    386965.41   -16047.703     -1039.19   -1445.9501   -4595.2144 
     332   -4595.2146      16.0127      16.0127      16.0127            0            0            0    380225.67    385752.67    367908.86    387015.47    -16037.37   -1019.5958   -1486.5637   -4595.2146 
     333   -4595.2148      16.0127      16.0127      16.0127            0            0            0    380265.93     385781.6    367950.08    387066.11   -16021.167   -1015.8782   -1489.8438   -4595.2148 
     334    -4595.215      16.0127      16.0127      16.0127            0            0            0    380301.63    385831.65     367970.4    387102.83   -16000.567   -1000.8916   -1523.3976    -4595.215 
     335   -4595.2152      16.0127      16.0127      16.0127            0            0            0    380339.15     385856.8    367997.81    387162.84   -15973.282   -985.58355   -1552.8392   -4595.2152 
     336   -4595.2153      16.0127      16.0127      16.0127            0            0            0    380379.49    385903.63    368029.77    387205.09   -15940.527    -969.1531   -1563.1672   -4595.2153 
     337   -4595.2155      16.0127      16.0127      16.0127            0            0            0    380399.57    385913.32    368065.38       387220    -15924.21   -938.58058   -1569.4249   -4595.2155 
     338   -4595.2157      16.0127      16.0127      16.0127            0            0            0    380400.99    385915.96    368050.37    387236.63   -15904.442   -912.26108   -1566.6106   -4595.2157 
     339   -4595.2158      16.0127      16.0127      16.0127            0            0            0    380401.47    385909.89    368047.04    387247.48     -15891.3   -893.65356   -1565.3494   -4595.2158 
     340   -4595.2159      16.0127      16.0127      16.0127            0            0            0    380406.17    385914.51    368059.11     387244.9   -15880.947   -872.18099   -1573.2889   -4595.2159 
     341   -4595.2159      16.0127      16.0127      16.0127            0            0            0    380406.17    385914.51    368059.11     387244.9   -15880.947   -872.18099   -1573.2889   -4595.2159 
Loop time of 4.60949 on 1 procs for 341 steps with 214 atoms

Minimization stats:
  Stopping criterion = linesearch alpha is zero
  Energy initial, next-to-last, final = 
        -4126.00229111     -4595.21585001     -4595.21585001
  Force two-norm initial, final = 46.3779 0.0724541
  Force max component initial, final = 8.84953 0.0186449
  Final line search alpha, max atom move = 1.90735e-06 3.55624e-08
  Iterations, force evaluations = 341 584

Pair  time (%) = 1.58617 (34.411)
Kspce time (%) = 2.81502 (61.07)
Neigh time (%) = 0.136225 (2.95531)
Comm  time (%) = 0.029809 (0.646687)
Outpt time (%) = 0.0261834 (0.568031)
Other time (%) = 0.0160854 (0.348962)

Nlocal:    214 ave 214 max 214 min
Histogram: 1 0 0 0 0 0 0 0 0 0
Nghost:    2700 ave 2700 max 2700 min
Histogram: 1 0 0 0 0 0 0 0 0 0
Neighs:    31104 ave 31104 max 31104 min
Histogram: 1 0 0 0 0 0 0 0 0 0

Total # of neighbors = 31104
Ave neighs/atom = 145.346
Neighbor list builds = 43
Dangerous builds = 0
pyPosMat output section
tot_energy = -4595.21585001344
num_atoms = 214
xx = 16.0127
yy = 16.0127
zz = 16.0127
xy = 0
xz = 0
yz = 0
pressure_total = 380406.173523946
press_xx = 385914.51205456
press_yy = 368059.112604451
press_zz = 387244.895912826
press_xy = -15880.9465257999
press_xz = -872.180994773272
press_yz = -1573.28889007464
ecoh = -21.472971261745
lammps_sim_done
