# ['Mg', 'O']

216 atoms
2 atom types

    0.0000    12.5740 xlo xhi
    0.0000    12.5740 ylo yhi
    0.0000    12.5740 zlo zhi

    0.0000     0.0000     0.0000 xy xz yz

Atoms

1 1     1.0000     2.0957     2.0957     0.0000
2 1     1.0000     2.0957     0.0000     2.0957
3 1     1.0000     0.0000     0.0000     0.0000
4 1     1.0000     0.0000     2.0957     2.0957
5 1     1.0000     2.0957     2.0957     4.1913
6 1     1.0000     2.0957     0.0000     6.2870
7 1     1.0000     0.0000     0.0000     4.1913
8 1     1.0000     0.0000     2.0957     6.2870
9 1     1.0000     2.0957     2.0957     8.3826
10 1     1.0000     2.0957     0.0000    10.4783
11 1     1.0000     0.0000     0.0000     8.3826
12 1     1.0000     0.0000     2.0957    10.4783
13 1     1.0000     2.0957     6.2870     0.0000
14 1     1.0000     2.0957     4.1913     2.0957
15 1     1.0000     0.0000     4.1913     0.0000
16 1     1.0000     0.0000     6.2870     2.0957
17 1     1.0000     2.0957     6.2870     4.1913
18 1     1.0000     2.0957     4.1913     6.2870
19 1     1.0000     0.0000     4.1913     4.1913
20 1     1.0000     0.0000     6.2870     6.2870
21 1     1.0000     2.0957     6.2870     8.3826
22 1     1.0000     2.0957     4.1913    10.4783
23 1     1.0000     0.0000     4.1913     8.3826
24 1     1.0000     0.0000     6.2870    10.4783
25 1     1.0000     2.0957    10.4783     0.0000
26 1     1.0000     2.0957     8.3826     2.0957
27 1     1.0000     0.0000     8.3826     0.0000
28 1     1.0000     0.0000    10.4783     2.0957
29 1     1.0000     2.0957    10.4783     4.1913
30 1     1.0000     2.0957     8.3826     6.2870
31 1     1.0000     0.0000     8.3826     4.1913
32 1     1.0000     0.0000    10.4783     6.2870
33 1     1.0000     2.0957    10.4783     8.3826
34 1     1.0000     2.0957     8.3826    10.4783
35 1     1.0000     0.0000     8.3826     8.3826
36 1     1.0000     0.0000    10.4783    10.4783
37 1     1.0000     6.2870     2.0957     0.0000
38 1     1.0000     6.2870     0.0000     2.0957
39 1     1.0000     4.1913     0.0000     0.0000
40 1     1.0000     4.1913     2.0957     2.0957
41 1     1.0000     6.2870     2.0957     4.1913
42 1     1.0000     6.2870     0.0000     6.2870
43 1     1.0000     4.1913     0.0000     4.1913
44 1     1.0000     4.1913     2.0957     6.2870
45 1     1.0000     6.2870     2.0957     8.3826
46 1     1.0000     6.2870     0.0000    10.4783
47 1     1.0000     4.1913     0.0000     8.3826
48 1     1.0000     4.1913     2.0957    10.4783
49 1     1.0000     6.2870     6.2870     0.0000
50 1     1.0000     6.2870     4.1913     2.0957
51 1     1.0000     4.1913     4.1913     0.0000
52 1     1.0000     4.1913     6.2870     2.0957
53 1     1.0000     6.2870     6.2870     4.1913
54 1     1.0000     6.2870     4.1913     6.2870
55 1     1.0000     4.1913     4.1913     4.1913
56 1     1.0000     4.1913     6.2870     6.2870
57 1     1.0000     6.2870     6.2870     8.3826
58 1     1.0000     6.2870     4.1913    10.4783
59 1     1.0000     4.1913     4.1913     8.3826
60 1     1.0000     4.1913     6.2870    10.4783
61 1     1.0000     6.2870    10.4783     0.0000
62 1     1.0000     6.2870     8.3826     2.0957
63 1     1.0000     4.1913     8.3826     0.0000
64 1     1.0000     4.1913    10.4783     2.0957
65 1     1.0000     6.2870    10.4783     4.1913
66 1     1.0000     6.2870     8.3826     6.2870
67 1     1.0000     4.1913     8.3826     4.1913
68 1     1.0000     4.1913    10.4783     6.2870
69 1     1.0000     6.2870    10.4783     8.3826
70 1     1.0000     6.2870     8.3826    10.4783
71 1     1.0000     4.1913     8.3826     8.3826
72 1     1.0000     4.1913    10.4783    10.4783
73 1     1.0000    10.4783     2.0957     0.0000
74 1     1.0000    10.4783     0.0000     2.0957
75 1     1.0000     8.3826     0.0000     0.0000
76 1     1.0000     8.3826     2.0957     2.0957
77 1     1.0000    10.4783     2.0957     4.1913
78 1     1.0000    10.4783     0.0000     6.2870
79 1     1.0000     8.3826     0.0000     4.1913
80 1     1.0000     8.3826     2.0957     6.2870
81 1     1.0000    10.4783     2.0957     8.3826
82 1     1.0000    10.4783     0.0000    10.4783
83 1     1.0000     8.3826     0.0000     8.3826
84 1     1.0000     8.3826     2.0957    10.4783
85 1     1.0000    10.4783     6.2870     0.0000
86 1     1.0000    10.4783     4.1913     2.0957
87 1     1.0000     8.3826     4.1913     0.0000
88 1     1.0000     8.3826     6.2870     2.0957
89 1     1.0000    10.4783     6.2870     4.1913
90 1     1.0000    10.4783     4.1913     6.2870
91 1     1.0000     8.3826     4.1913     4.1913
92 1     1.0000     8.3826     6.2870     6.2870
93 1     1.0000    10.4783     6.2870     8.3826
94 1     1.0000    10.4783     4.1913    10.4783
95 1     1.0000     8.3826     4.1913     8.3826
96 1     1.0000     8.3826     6.2870    10.4783
97 1     1.0000    10.4783    10.4783     0.0000
98 1     1.0000    10.4783     8.3826     2.0957
99 1     1.0000     8.3826     8.3826     0.0000
100 1     1.0000     8.3826    10.4783     2.0957
101 1     1.0000    10.4783    10.4783     4.1913
102 1     1.0000    10.4783     8.3826     6.2870
103 1     1.0000     8.3826     8.3826     4.1913
104 1     1.0000     8.3826    10.4783     6.2870
105 1     1.0000    10.4783    10.4783     8.3826
106 1     1.0000    10.4783     8.3826    10.4783
107 1     1.0000     8.3826     8.3826     8.3826
108 1     1.0000     8.3826    10.4783    10.4783
109 2     1.0000     0.0000     2.0957     0.0000
110 2     1.0000     2.0957     0.0000     0.0000
111 2     1.0000     2.0957     2.0957     2.0957
112 2     1.0000     0.0000     0.0000     2.0957
113 2     1.0000     0.0000     2.0957     4.1913
114 2     1.0000     2.0957     0.0000     4.1913
115 2     1.0000     2.0957     2.0957     6.2870
116 2     1.0000     0.0000     0.0000     6.2870
117 2     1.0000     0.0000     2.0957     8.3826
118 2     1.0000     2.0957     0.0000     8.3826
119 2     1.0000     2.0957     2.0957    10.4783
120 2     1.0000     0.0000     0.0000    10.4783
121 2     1.0000     0.0000     6.2870     0.0000
122 2     1.0000     2.0957     4.1913     0.0000
123 2     1.0000     2.0957     6.2870     2.0957
124 2     1.0000     0.0000     4.1913     2.0957
125 2     1.0000     0.0000     6.2870     4.1913
126 2     1.0000     2.0957     4.1913     4.1913
127 2     1.0000     2.0957     6.2870     6.2870
128 2     1.0000     0.0000     4.1913     6.2870
129 2     1.0000     0.0000     6.2870     8.3826
130 2     1.0000     2.0957     4.1913     8.3826
131 2     1.0000     2.0957     6.2870    10.4783
132 2     1.0000     0.0000     4.1913    10.4783
133 2     1.0000     0.0000    10.4783     0.0000
134 2     1.0000     2.0957     8.3826     0.0000
135 2     1.0000     2.0957    10.4783     2.0957
136 2     1.0000     0.0000     8.3826     2.0957
137 2     1.0000     0.0000    10.4783     4.1913
138 2     1.0000     2.0957     8.3826     4.1913
139 2     1.0000     2.0957    10.4783     6.2870
140 2     1.0000     0.0000     8.3826     6.2870
141 2     1.0000     0.0000    10.4783     8.3826
142 2     1.0000     2.0957     8.3826     8.3826
143 2     1.0000     2.0957    10.4783    10.4783
144 2     1.0000     0.0000     8.3826    10.4783
145 2     1.0000     4.1913     2.0957     0.0000
146 2     1.0000     6.2870     0.0000     0.0000
147 2     1.0000     6.2870     2.0957     2.0957
148 2     1.0000     4.1913     0.0000     2.0957
149 2     1.0000     4.1913     2.0957     4.1913
150 2     1.0000     6.2870     0.0000     4.1913
151 2     1.0000     6.2870     2.0957     6.2870
152 2     1.0000     4.1913     0.0000     6.2870
153 2     1.0000     4.1913     2.0957     8.3826
154 2     1.0000     6.2870     0.0000     8.3826
155 2     1.0000     6.2870     2.0957    10.4783
156 2     1.0000     4.1913     0.0000    10.4783
157 2     1.0000     4.1913     6.2870     0.0000
158 2     1.0000     6.2870     4.1913     0.0000
159 2     1.0000     6.2870     6.2870     2.0957
160 2     1.0000     4.1913     4.1913     2.0957
161 2     1.0000     4.1913     6.2870     4.1913
162 2     1.0000     6.2870     4.1913     4.1913
163 2     1.0000     4.1913     4.1913     6.2870
164 2     1.0000     4.1913     6.2870     8.3826
165 2     1.0000     6.2870     4.1913     8.3826
166 2     1.0000     6.2870     6.2870    10.4783
167 2     1.0000     4.1913     4.1913    10.4783
168 2     1.0000     4.1913    10.4783     0.0000
169 2     1.0000     6.2870     8.3826     0.0000
170 2     1.0000     6.2870    10.4783     2.0957
171 2     1.0000     4.1913     8.3826     2.0957
172 2     1.0000     4.1913    10.4783     4.1913
173 2     1.0000     6.2870     8.3826     4.1913
174 2     1.0000     6.2870    10.4783     6.2870
175 2     1.0000     4.1913     8.3826     6.2870
176 2     1.0000     4.1913    10.4783     8.3826
177 2     1.0000     6.2870     8.3826     8.3826
178 2     1.0000     6.2870    10.4783    10.4783
179 2     1.0000     4.1913     8.3826    10.4783
180 2     1.0000     8.3826     2.0957     0.0000
181 2     1.0000    10.4783     0.0000     0.0000
182 2     1.0000    10.4783     2.0957     2.0957
183 2     1.0000     8.3826     0.0000     2.0957
184 2     1.0000     8.3826     2.0957     4.1913
185 2     1.0000    10.4783     0.0000     4.1913
186 2     1.0000    10.4783     2.0957     6.2870
187 2     1.0000     8.3826     0.0000     6.2870
188 2     1.0000     8.3826     2.0957     8.3826
189 2     1.0000    10.4783     0.0000     8.3826
190 2     1.0000    10.4783     2.0957    10.4783
191 2     1.0000     8.3826     0.0000    10.4783
192 2     1.0000     8.3826     6.2870     0.0000
193 2     1.0000    10.4783     4.1913     0.0000
194 2     1.0000    10.4783     6.2870     2.0957
195 2     1.0000     8.3826     4.1913     2.0957
196 2     1.0000     8.3826     6.2870     4.1913
197 2     1.0000    10.4783     4.1913     4.1913
198 2     1.0000    10.4783     6.2870     6.2870
199 2     1.0000     8.3826     4.1913     6.2870
200 2     1.0000     8.3826     6.2870     8.3826
201 2     1.0000    10.4783     4.1913     8.3826
202 2     1.0000    10.4783     6.2870    10.4783
203 2     1.0000     8.3826     4.1913    10.4783
204 2     1.0000     8.3826    10.4783     0.0000
205 2     1.0000    10.4783     8.3826     0.0000
206 2     1.0000    10.4783    10.4783     2.0957
207 2     1.0000     8.3826     8.3826     2.0957
208 2     1.0000     8.3826    10.4783     4.1913
209 2     1.0000    10.4783     8.3826     4.1913
210 2     1.0000    10.4783    10.4783     6.2870
211 2     1.0000     8.3826     8.3826     6.2870
212 2     1.0000     8.3826    10.4783     8.3826
213 2     1.0000    10.4783     8.3826     8.3826
214 2     1.0000    10.4783    10.4783    10.4783
215 2     1.0000     8.3826     8.3826    10.4783
216 2     1.0000     9.4305     9.4305     9.4305
