# ['Mg', 'O']

216 atoms
2 atom types

    0.0000    13.4833 xlo xhi
    0.0000    13.4833 ylo yhi
    0.0000    13.4833 zlo zhi

    0.0000     0.0000     0.0000 xy xz yz

Atoms

1 1     1.0000     2.2472     2.2472     0.0000
2 1     1.0000     2.2472     0.0000     2.2472
3 1     1.0000     0.0000     0.0000     0.0000
4 1     1.0000     0.0000     2.2472     2.2472
5 1     1.0000     2.2472     2.2472     4.4944
6 1     1.0000     2.2472     0.0000     6.7417
7 1     1.0000     0.0000     0.0000     4.4944
8 1     1.0000     0.0000     2.2472     6.7417
9 1     1.0000     2.2472     2.2472     8.9889
10 1     1.0000     2.2472     0.0000    11.2361
11 1     1.0000     0.0000     0.0000     8.9889
12 1     1.0000     0.0000     2.2472    11.2361
13 1     1.0000     2.2472     6.7417     0.0000
14 1     1.0000     2.2472     4.4944     2.2472
15 1     1.0000     0.0000     4.4944     0.0000
16 1     1.0000     0.0000     6.7417     2.2472
17 1     1.0000     2.2472     6.7417     4.4944
18 1     1.0000     2.2472     4.4944     6.7417
19 1     1.0000     0.0000     4.4944     4.4944
20 1     1.0000     0.0000     6.7417     6.7417
21 1     1.0000     2.2472     6.7417     8.9889
22 1     1.0000     2.2472     4.4944    11.2361
23 1     1.0000     0.0000     4.4944     8.9889
24 1     1.0000     0.0000     6.7417    11.2361
25 1     1.0000     2.2472    11.2361     0.0000
26 1     1.0000     2.2472     8.9889     2.2472
27 1     1.0000     0.0000     8.9889     0.0000
28 1     1.0000     0.0000    11.2361     2.2472
29 1     1.0000     2.2472    11.2361     4.4944
30 1     1.0000     2.2472     8.9889     6.7417
31 1     1.0000     0.0000     8.9889     4.4944
32 1     1.0000     0.0000    11.2361     6.7417
33 1     1.0000     2.2472    11.2361     8.9889
34 1     1.0000     2.2472     8.9889    11.2361
35 1     1.0000     0.0000     8.9889     8.9889
36 1     1.0000     0.0000    11.2361    11.2361
37 1     1.0000     6.7417     2.2472     0.0000
38 1     1.0000     6.7417     0.0000     2.2472
39 1     1.0000     4.4944     0.0000     0.0000
40 1     1.0000     4.4944     2.2472     2.2472
41 1     1.0000     6.7417     2.2472     4.4944
42 1     1.0000     6.7417     0.0000     6.7417
43 1     1.0000     4.4944     0.0000     4.4944
44 1     1.0000     4.4944     2.2472     6.7417
45 1     1.0000     6.7417     2.2472     8.9889
46 1     1.0000     6.7417     0.0000    11.2361
47 1     1.0000     4.4944     0.0000     8.9889
48 1     1.0000     4.4944     2.2472    11.2361
49 1     1.0000     6.7417     6.7417     0.0000
50 1     1.0000     6.7417     4.4944     2.2472
51 1     1.0000     4.4944     4.4944     0.0000
52 1     1.0000     4.4944     6.7417     2.2472
53 1     1.0000     6.7417     6.7417     4.4944
54 1     1.0000     6.7417     4.4944     6.7417
55 1     1.0000     4.4944     4.4944     4.4944
56 1     1.0000     4.4944     6.7417     6.7417
57 1     1.0000     6.7417     6.7417     8.9889
58 1     1.0000     6.7417     4.4944    11.2361
59 1     1.0000     4.4944     4.4944     8.9889
60 1     1.0000     4.4944     6.7417    11.2361
61 1     1.0000     6.7417    11.2361     0.0000
62 1     1.0000     6.7417     8.9889     2.2472
63 1     1.0000     4.4944     8.9889     0.0000
64 1     1.0000     4.4944    11.2361     2.2472
65 1     1.0000     6.7417    11.2361     4.4944
66 1     1.0000     6.7417     8.9889     6.7417
67 1     1.0000     4.4944     8.9889     4.4944
68 1     1.0000     4.4944    11.2361     6.7417
69 1     1.0000     6.7417    11.2361     8.9889
70 1     1.0000     6.7417     8.9889    11.2361
71 1     1.0000     4.4944     8.9889     8.9889
72 1     1.0000     4.4944    11.2361    11.2361
73 1     1.0000    11.2361     2.2472     0.0000
74 1     1.0000    11.2361     0.0000     2.2472
75 1     1.0000     8.9889     0.0000     0.0000
76 1     1.0000     8.9889     2.2472     2.2472
77 1     1.0000    11.2361     2.2472     4.4944
78 1     1.0000    11.2361     0.0000     6.7417
79 1     1.0000     8.9889     0.0000     4.4944
80 1     1.0000     8.9889     2.2472     6.7417
81 1     1.0000    11.2361     2.2472     8.9889
82 1     1.0000    11.2361     0.0000    11.2361
83 1     1.0000     8.9889     0.0000     8.9889
84 1     1.0000     8.9889     2.2472    11.2361
85 1     1.0000    11.2361     6.7417     0.0000
86 1     1.0000    11.2361     4.4944     2.2472
87 1     1.0000     8.9889     4.4944     0.0000
88 1     1.0000     8.9889     6.7417     2.2472
89 1     1.0000    11.2361     6.7417     4.4944
90 1     1.0000    11.2361     4.4944     6.7417
91 1     1.0000     8.9889     4.4944     4.4944
92 1     1.0000     8.9889     6.7417     6.7417
93 1     1.0000    11.2361     6.7417     8.9889
94 1     1.0000    11.2361     4.4944    11.2361
95 1     1.0000     8.9889     4.4944     8.9889
96 1     1.0000     8.9889     6.7417    11.2361
97 1     1.0000    11.2361    11.2361     0.0000
98 1     1.0000    11.2361     8.9889     2.2472
99 1     1.0000     8.9889     8.9889     0.0000
100 1     1.0000     8.9889    11.2361     2.2472
101 1     1.0000    11.2361    11.2361     4.4944
102 1     1.0000    11.2361     8.9889     6.7417
103 1     1.0000     8.9889     8.9889     4.4944
104 1     1.0000     8.9889    11.2361     6.7417
105 1     1.0000    11.2361    11.2361     8.9889
106 1     1.0000    11.2361     8.9889    11.2361
107 1     1.0000     8.9889     8.9889     8.9889
108 1     1.0000     8.9889    11.2361    11.2361
109 2     1.0000     0.0000     2.2472     0.0000
110 2     1.0000     2.2472     0.0000     0.0000
111 2     1.0000     2.2472     2.2472     2.2472
112 2     1.0000     0.0000     0.0000     2.2472
113 2     1.0000     0.0000     2.2472     4.4944
114 2     1.0000     2.2472     0.0000     4.4944
115 2     1.0000     2.2472     2.2472     6.7417
116 2     1.0000     0.0000     0.0000     6.7417
117 2     1.0000     0.0000     2.2472     8.9889
118 2     1.0000     2.2472     0.0000     8.9889
119 2     1.0000     2.2472     2.2472    11.2361
120 2     1.0000     0.0000     0.0000    11.2361
121 2     1.0000     0.0000     6.7417     0.0000
122 2     1.0000     2.2472     4.4944     0.0000
123 2     1.0000     2.2472     6.7417     2.2472
124 2     1.0000     0.0000     4.4944     2.2472
125 2     1.0000     0.0000     6.7417     4.4944
126 2     1.0000     2.2472     4.4944     4.4944
127 2     1.0000     2.2472     6.7417     6.7417
128 2     1.0000     0.0000     4.4944     6.7417
129 2     1.0000     0.0000     6.7417     8.9889
130 2     1.0000     2.2472     4.4944     8.9889
131 2     1.0000     2.2472     6.7417    11.2361
132 2     1.0000     0.0000     4.4944    11.2361
133 2     1.0000     0.0000    11.2361     0.0000
134 2     1.0000     2.2472     8.9889     0.0000
135 2     1.0000     2.2472    11.2361     2.2472
136 2     1.0000     0.0000     8.9889     2.2472
137 2     1.0000     0.0000    11.2361     4.4944
138 2     1.0000     2.2472     8.9889     4.4944
139 2     1.0000     2.2472    11.2361     6.7417
140 2     1.0000     0.0000     8.9889     6.7417
141 2     1.0000     0.0000    11.2361     8.9889
142 2     1.0000     2.2472     8.9889     8.9889
143 2     1.0000     2.2472    11.2361    11.2361
144 2     1.0000     0.0000     8.9889    11.2361
145 2     1.0000     4.4944     2.2472     0.0000
146 2     1.0000     6.7417     0.0000     0.0000
147 2     1.0000     6.7417     2.2472     2.2472
148 2     1.0000     4.4944     0.0000     2.2472
149 2     1.0000     4.4944     2.2472     4.4944
150 2     1.0000     6.7417     0.0000     4.4944
151 2     1.0000     6.7417     2.2472     6.7417
152 2     1.0000     4.4944     0.0000     6.7417
153 2     1.0000     4.4944     2.2472     8.9889
154 2     1.0000     6.7417     0.0000     8.9889
155 2     1.0000     6.7417     2.2472    11.2361
156 2     1.0000     4.4944     0.0000    11.2361
157 2     1.0000     4.4944     6.7417     0.0000
158 2     1.0000     6.7417     4.4944     0.0000
159 2     1.0000     6.7417     6.7417     2.2472
160 2     1.0000     4.4944     4.4944     2.2472
161 2     1.0000     4.4944     6.7417     4.4944
162 2     1.0000     6.7417     4.4944     4.4944
163 2     1.0000     4.4944     4.4944     6.7417
164 2     1.0000     4.4944     6.7417     8.9889
165 2     1.0000     6.7417     4.4944     8.9889
166 2     1.0000     6.7417     6.7417    11.2361
167 2     1.0000     4.4944     4.4944    11.2361
168 2     1.0000     4.4944    11.2361     0.0000
169 2     1.0000     6.7417     8.9889     0.0000
170 2     1.0000     6.7417    11.2361     2.2472
171 2     1.0000     4.4944     8.9889     2.2472
172 2     1.0000     4.4944    11.2361     4.4944
173 2     1.0000     6.7417     8.9889     4.4944
174 2     1.0000     6.7417    11.2361     6.7417
175 2     1.0000     4.4944     8.9889     6.7417
176 2     1.0000     4.4944    11.2361     8.9889
177 2     1.0000     6.7417     8.9889     8.9889
178 2     1.0000     6.7417    11.2361    11.2361
179 2     1.0000     4.4944     8.9889    11.2361
180 2     1.0000     8.9889     2.2472     0.0000
181 2     1.0000    11.2361     0.0000     0.0000
182 2     1.0000    11.2361     2.2472     2.2472
183 2     1.0000     8.9889     0.0000     2.2472
184 2     1.0000     8.9889     2.2472     4.4944
185 2     1.0000    11.2361     0.0000     4.4944
186 2     1.0000    11.2361     2.2472     6.7417
187 2     1.0000     8.9889     0.0000     6.7417
188 2     1.0000     8.9889     2.2472     8.9889
189 2     1.0000    11.2361     0.0000     8.9889
190 2     1.0000    11.2361     2.2472    11.2361
191 2     1.0000     8.9889     0.0000    11.2361
192 2     1.0000     8.9889     6.7417     0.0000
193 2     1.0000    11.2361     4.4944     0.0000
194 2     1.0000    11.2361     6.7417     2.2472
195 2     1.0000     8.9889     4.4944     2.2472
196 2     1.0000     8.9889     6.7417     4.4944
197 2     1.0000    11.2361     4.4944     4.4944
198 2     1.0000    11.2361     6.7417     6.7417
199 2     1.0000     8.9889     4.4944     6.7417
200 2     1.0000     8.9889     6.7417     8.9889
201 2     1.0000    11.2361     4.4944     8.9889
202 2     1.0000    11.2361     6.7417    11.2361
203 2     1.0000     8.9889     4.4944    11.2361
204 2     1.0000     8.9889    11.2361     0.0000
205 2     1.0000    11.2361     8.9889     0.0000
206 2     1.0000    11.2361    11.2361     2.2472
207 2     1.0000     8.9889     8.9889     2.2472
208 2     1.0000     8.9889    11.2361     4.4944
209 2     1.0000    11.2361     8.9889     4.4944
210 2     1.0000    11.2361    11.2361     6.7417
211 2     1.0000     8.9889     8.9889     6.7417
212 2     1.0000     8.9889    11.2361     8.9889
213 2     1.0000    11.2361     8.9889     8.9889
214 2     1.0000    11.2361    11.2361    11.2361
215 2     1.0000     8.9889     8.9889    11.2361
216 2     1.0000    10.1125    10.1125    10.1125
