<?xml version="1.0" encoding="ISO-8859-1"?>
<modeling>
 <generator>
  <i name="program" type="string">vasp </i>
  <i name="version" type="string">5.3.5  </i>
  <i name="subversion" type="string">31Mar14 (build Sep 13 2016 13:59:23) complex                          parallel </i>
  <i name="platform" type="string">LinuxIFC </i>
  <i name="date" type="string">2016 12 02 </i>
  <i name="time" type="string">16:53:35 </i>
 </generator>
 <incar>
  <i type="string" name="SYSTEM"> Si</i>
  <i type="int" name="ISTART">     0</i>
  <i type="string" name="PREC">accurate</i>
  <i type="string" name="ALGO"> Fast</i>
  <i type="logical" name="ADDGRID"> T  </i>
  <i type="int" name="NELM">   300</i>
  <i type="int" name="NELMDL">    -5</i>
  <i type="int" name="NELMIN">     4</i>
  <i type="int" name="IBRION">     2</i>
  <i name="EDIFF">      0.00000001</i>
  <i name="EDIFFG">      0.00100000</i>
  <i type="int" name="NSW">    20</i>
  <i type="int" name="ISYM">     2</i>
  <i name="ENCUT">    500.00000000</i>
  <i name="POTIM">      0.50000000</i>
  <i type="logical" name="LREAL"> F  </i>
  <i type="int" name="ISMEAR">     0</i>
  <i name="SIGMA">      0.02000000</i>
  <i type="int" name="NWRITE">     2</i>
  <i type="logical" name="LWAVE"> T  </i>
  <i type="logical" name="LCHARG"> T  </i>
  <i type="int" name="NELM">   300</i>
 </incar>
 <kpoints>
  <generation param="Gamma">
   <v type="int" name="divisions">       2        2        2 </v>
   <v name="usershift">      0.00000000       0.00000000       0.00000000 </v>
   <v name="genvec1">      0.50000000       0.00000000       0.00000000 </v>
   <v name="genvec2">      0.00000000       0.50000000       0.00000000 </v>
   <v name="genvec3">      0.00000000       0.00000000       0.50000000 </v>
   <v name="shift">      0.00000000       0.00000000       0.00000000 </v>
  </generation>
  <varray name="kpointlist" >
   <v>       0.00000000       0.00000000       0.00000000 </v>
   <v>       0.50000000       0.00000000       0.00000000 </v>
   <v>       0.50000000       0.50000000       0.00000000 </v>
   <v>       0.50000000       0.50000000       0.50000000 </v>
  </varray>
  <varray name="weights" >
   <v>       0.12500000 </v>
   <v>       0.37500000 </v>
   <v>       0.37500000 </v>
   <v>       0.12500000 </v>
  </varray>
 </kpoints>
 <parameters>
  <separator name="general" >
   <i type="string" name="SYSTEM">Si</i>
   <i type="logical" name="LCOMPAT"> F  </i>
  </separator>
  <separator name="electronic" >
   <i type="string" name="PREC">accura</i>
   <i name="ENMAX">    500.00000000</i>
   <i name="ENAUG">    605.39200000</i>
   <i name="EDIFF">      0.00000001</i>
   <i type="int" name="IALGO">    68</i>
   <i type="int" name="IWAVPR">    11</i>
   <i type="int" name="NBANDS">    24</i>
   <i name="NELECT">     32.00000000</i>
   <i type="int" name="TURBO">     0</i>
   <i type="int" name="IRESTART">     0</i>
   <i type="int" name="NREBOOT">     0</i>
   <i type="int" name="NMIN">     0</i>
   <i name="EREF">      0.00000000</i>
   <separator name="electronic smearing" >
    <i type="int" name="ISMEAR">     0</i>
    <i name="SIGMA">      0.02000000</i>
    <i name="KSPACING">      0.50000000</i>
    <i type="logical" name="KGAMMA"> T  </i>
   </separator>
   <separator name="electronic projectors" >
    <i type="logical" name="LREAL"> F  </i>
    <v name="ROPT">      0.00000000      0.00000000</v>
    <i type="int" name="LMAXPAW">  -100</i>
    <i type="int" name="LMAXMIX">     2</i>
    <i type="logical" name="NLSPLINE"> F  </i>
   </separator>
   <separator name="electronic startup" >
    <i type="int" name="ISTART">     0</i>
    <i type="int" name="ICHARG">     2</i>
    <i type="int" name="INIWAV">     1</i>
   </separator>
   <separator name="electronic spin" >
    <i type="int" name="ISPIN">     1</i>
    <i type="logical" name="LNONCOLLINEAR"> F  </i>
    <v name="MAGMOM">      1.00000000      1.00000000      1.00000000      1.00000000      1.00000000      1.00000000      1.00000000      1.00000000</v>
    <i name="NUPDOWN">     -1.00000000</i>
    <i type="logical" name="LSORBIT"> F  </i>
    <v name="SAXIS">      0.00000000      0.00000000      1.00000000</v>
    <i type="logical" name="LSPIRAL"> F  </i>
    <v name="QSPIRAL">      0.00000000      0.00000000      0.00000000</v>
    <i type="logical" name="LZEROZ"> F  </i>
   </separator>
   <separator name="electronic exchange-correlation" >
    <i type="logical" name="LASPH"> F  </i>
    <i type="logical" name="LMETAGGA"> F  </i>
   </separator>
   <separator name="electronic convergence" >
    <i type="int" name="NELM">   300</i>
    <i type="int" name="NELMDL">    -5</i>
    <i type="int" name="NELMIN">     4</i>
    <i name="ENINI">    500.00000000</i>
    <separator name="electronic convergence detail" >
     <i type="logical" name="LDIAG"> T  </i>
     <i type="logical" name="LSUBROT"> F  </i>
     <i name="WEIMIN">      0.00100000</i>
     <i name="EBREAK">      0.00000000</i>
     <i name="DEPER">      0.30000000</i>
     <i type="int" name="NRMM">     4</i>
     <i name="TIME">      0.40000000</i>
    </separator>
   </separator>
   <separator name="electronic mixer" >
    <i name="AMIX">      0.40000000</i>
    <i name="BMIX">      1.00000000</i>
    <i name="AMIN">      0.10000000</i>
    <i name="AMIX_MAG">      1.60000000</i>
    <i name="BMIX_MAG">      1.00000000</i>
    <separator name="electronic mixer details" >
     <i type="int" name="IMIX">     4</i>
     <i type="int" name="MAXMIX">   -45</i>
     <i name="WC">    100.00000000</i>
     <i type="int" name="INIMIX">     1</i>
     <i type="int" name="MIXPRE">     1</i>
     <i type="int" name="MREMOVE">     5</i>
    </separator>
   </separator>
   <separator name="electronic dipolcorrection" >
    <i type="logical" name="LDIPOL"> F  </i>
    <i type="logical" name="LMONO"> F  </i>
    <i type="int" name="IDIPOL">     0</i>
    <i name="EPSILON">      1.00000000</i>
    <v name="DIPOL">   -100.00000000   -100.00000000   -100.00000000</v>
    <i name="EFIELD">      0.00000000</i>
   </separator>
  </separator>
  <separator name="grids" >
   <i type="int" name="NGX">    32</i>
   <i type="int" name="NGY">    32</i>
   <i type="int" name="NGZ">    32</i>
   <i type="int" name="NGXF">    64</i>
   <i type="int" name="NGYF">    64</i>
   <i type="int" name="NGZF">    64</i>
   <i type="logical" name="ADDGRID"> T  </i>
  </separator>
  <separator name="ionic" >
   <i type="int" name="NSW">    20</i>
   <i type="int" name="IBRION">     2</i>
   <i type="int" name="ISIF">     2</i>
   <i name="PSTRESS">      0.00000000</i>
   <i name="EDIFFG">      0.00100000</i>
   <i type="int" name="NFREE">     1</i>
   <i name="POTIM">      0.50000000</i>
   <i name="SMASS">     -3.00000000</i>
   <i name="SCALEE">      1.00000000</i>
  </separator>
  <separator name="ionic md" >
   <i name="TEBEG">      0.00010000</i>
   <i name="TEEND">      0.00010000</i>
   <i type="int" name="NBLOCK">     1</i>
   <i type="int" name="KBLOCK">    20</i>
   <i type="int" name="NPACO">   256</i>
   <i name="APACO">     16.00000000</i>
  </separator>
  <separator name="symmetry" >
   <i type="int" name="ISYM">     2</i>
   <i name="SYMPREC">      0.00001000</i>
  </separator>
  <separator name="dos" >
   <i type="logical" name="LORBIT"> F  </i>
   <v name="RWIGS">     -1.00000000     -1.00000000</v>
   <i type="int" name="NEDOS">   301</i>
   <i name="EMIN">     10.00000000</i>
   <i name="EMAX">    -10.00000000</i>
   <i name="EFERMI">      0.00000000</i>
  </separator>
  <separator name="writing" >
   <i type="int" name="NWRITE">     2</i>
   <i type="logical" name="LWAVE"> T  </i>
   <i type="logical" name="LCHARG"> T  </i>
   <i type="logical" name="LPARD"> F  </i>
   <i type="logical" name="LVTOT"> F  </i>
   <i type="logical" name="LVHAR"> F  </i>
   <i type="logical" name="LELF"> F  </i>
   <i type="logical" name="LOPTICS"> F  </i>
   <v name="STM">      0.00000000      0.00000000      0.00000000      0.00000000      0.00000000      0.00000000      0.00000000</v>
  </separator>
  <separator name="performance" >
   <i type="int" name="NPAR">    24</i>
   <i type="int" name="NSIM">     4</i>
   <i type="int" name="NBLK">    -1</i>
   <i type="logical" name="LPLANE"> T  </i>
   <i type="logical" name="LSCALAPACK"> T  </i>
   <i type="logical" name="LSCAAWARE"> F  </i>
   <i type="logical" name="LSCALU"> F  </i>
   <i type="logical" name="LASYNC"> F  </i>
   <i type="logical" name="LORBITALREAL"> F  </i>
  </separator>
  <separator name="miscellaneous" >
   <i type="int" name="IDIOT">     3</i>
   <i type="logical" name="LMUSIC"> F  </i>
   <v name="POMASS">     24.30500000     16.00000000</v>
   <v name="DARWINR">      0.00000000      0.00000000</v>
   <v name="DARWINV">      1.00000000      1.00000000</v>
   <i type="logical" name="LCORR"> T  </i>
  </separator>
  <i type="logical" name="GGA_COMPAT"> T  </i>
  <i type="logical" name="LBERRY"> F  </i>
  <i type="int" name="ICORELEVEL">     0</i>
  <i type="logical" name="LDAU"> F  </i>
  <i type="int" name="I_CONSTRAINED_M">     0</i>
  <separator name="electronic exchange-correlation" >
   <i type="string" name="GGA">--</i>
   <i type="int" name="VOSKOWN">     0</i>
   <i type="logical" name="LHFCALC"> F  </i>
   <i type="string" name="PRECFOCK"></i>
   <i type="logical" name="LSYMGRAD"> F  </i>
   <i type="logical" name="LHFONE"> F  </i>
   <i type="logical" name="LRHFCALC"> F  </i>
   <i type="logical" name="LTHOMAS"> F  </i>
   <i type="logical" name="LMODELHF"> F  </i>
   <i name="ENCUT4O">     -1.00000000</i>
   <i type="int" name="EXXOEP">     0</i>
   <i type="int" name="FOURORBIT">     0</i>
   <i name="AEXX">      0.00000000</i>
   <i name="HFALPHA">      0.00000000</i>
   <i name="MCALPHA">      0.00000000</i>
   <i name="ALDAX">      1.00000000</i>
   <i name="AGGAX">      1.00000000</i>
   <i name="ALDAC">      1.00000000</i>
   <i name="AGGAC">      1.00000000</i>
   <i type="int" name="NKREDX">     1</i>
   <i type="int" name="NKREDY">     1</i>
   <i type="int" name="NKREDZ">     1</i>
   <i type="logical" name="SHIFTRED"> F  </i>
   <i type="logical" name="ODDONLY"> F  </i>
   <i type="logical" name="EVENONLY"> F  </i>
   <i type="int" name="LMAXFOCK">     0</i>
   <i type="int" name="NMAXFOCKAE">     0</i>
   <i type="logical" name="LFOCKAEDFT"> F  </i>
   <i name="HFSCREEN">      0.00000000</i>
   <i name="HFSCREENC">      0.00000000</i>
   <i type="int" name="NBANDSGWLOW">     0</i>
  </separator>
  <separator name="vdW DFT" >
   <i type="logical" name="LUSE_VDW"> F  </i>
   <i name="Zab_VDW">     -0.84910000</i>
   <i name="PARAM1">      0.12340000</i>
   <i name="PARAM2">      1.00000000</i>
   <i name="PARAM3">      0.00000000</i>
  </separator>
  <separator name="model GW" >
   <i type="int" name="MODEL_GW">     0</i>
   <i name="MODEL_EPS0">      5.78380940</i>
   <i name="MODEL_ALPHA">      1.00000000</i>
  </separator>
  <separator name="linear response parameters" >
   <i type="logical" name="LEPSILON"> F  </i>
   <i type="logical" name="LRPA"> F  </i>
   <i type="logical" name="LNABLA"> F  </i>
   <i type="logical" name="LVEL"> F  </i>
   <i type="int" name="KINTER">     0</i>
   <i name="CSHIFT">      0.10000000</i>
   <i name="OMEGAMAX">     -1.00000000</i>
   <i name="DEG_THRESHOLD">      0.00200000</i>
  </separator>
  <separator name="orbital magnetization" >
   <i type="logical" name="NUCIND"> F  </i>
   <v name="MAGPOS">      0.00000000      0.00000000      0.00000000</v>
   <i type="logical" name="LNICSALL"> T  </i>
   <i type="logical" name="ORBITALMAG"> F  </i>
   <i type="logical" name="LMAGBLOCH"> F  </i>
   <i type="logical" name="LCHIMAG"> F  </i>
   <i type="logical" name="LGAUGE"> T  </i>
   <i type="int" name="MAGATOM">     0</i>
   <v name="MAGDIPOL">      0.00000000      0.00000000      0.00000000</v>
   <v name="AVECCONST">      0.00000000      0.00000000      0.00000000</v>
  </separator>
  <separator name="response functions" >
   <i type="logical" name="LADDER"> F  </i>
   <i type="logical" name="LFXC"> F  </i>
   <i type="logical" name="LHARTREE"> T  </i>
   <i type="int" name="IBSE">     0</i>
   <i type="logical" name="LTCTE"> F  </i>
   <i type="logical" name="LTETE"> F  </i>
   <i type="logical" name="LTRIPLET"> F  </i>
   <i type="logical" name="LFXCEPS"> F  </i>
   <i type="logical" name="LFXHEG"> F  </i>
   <i type="logical" name="L2ORDER"> F  </i>
   <i type="logical" name="LUSEW"> F  </i>
   <i name="ENCUTGW">     -2.00000000</i>
   <i name="ENCUTGWSOFT">     -2.00000000</i>
   <i name="ENCUTLF">     -1.00000000</i>
   <i type="int" name="LMAXMP2">    -1</i>
   <i name="SCISSOR">      0.00000000</i>
   <i type="int" name="NOMEGA">     0</i>
   <i type="int" name="NOMEGAR">     0</i>
   <i type="int" name="NBANDSGW">    -1</i>
   <i type="int" name="NBANDSO">    -1</i>
   <i type="int" name="NBANDSV">    -1</i>
   <i type="int" name="NELM">   300</i>
   <i type="int" name="DIM">     3</i>
   <i type="int" name="ANTIRES">     0</i>
   <i name="OMEGAMAX">    -30.00000000</i>
   <i name="OMEGAMIN">    -30.00000000</i>
   <i name="OMEGATL">   -200.00000000</i>
   <i type="int" name="OMEGAGRID">     0</i>
   <i name="CSHIFT">     -0.10000000</i>
   <i type="logical" name="SELFENERGY"> F  </i>
   <i type="logical" name="LSPECTRAL"> F  </i>
   <i type="logical" name="ODDONLYGW"> F  </i>
   <i type="logical" name="EVENONLYGW"> F  </i>
   <i type="int" name="NKREDLFX">     1</i>
   <i type="int" name="NKREDLFY">     1</i>
   <i type="int" name="NKREDLFZ">     1</i>
   <i type="int" name="MAXMEM">  1800</i>
   <i type="int" name="TELESCOPE">     0</i>
   <i type="int" name="TAUPAR">     1</i>
  </separator>
  <separator name="External order field" >
   <i name="OFIELD_KAPPA">      0.00000000</i>
   <v name="OFIELD_K">      0.00000000      0.00000000      0.00000000</v>
   <i name="OFIELD_Q6_NEAR">      0.00000000</i>
   <i name="OFIELD_Q6_FAR">      0.00000000</i>
   <i name="OFIELD_A">      0.00000000</i>
  </separator>
 </parameters>
 <atominfo>
  <atoms>       8 </atoms>
  <types>       2 </types>
  <array name="atoms" >
   <dimension dim="1">ion</dimension>
   <field type="string">element</field>
   <field type="int">atomtype</field>
   <set>
    <rc><c>Mg</c><c>   1</c></rc>
    <rc><c>Mg</c><c>   1</c></rc>
    <rc><c>Mg</c><c>   1</c></rc>
    <rc><c>Mg</c><c>   1</c></rc>
    <rc><c>O </c><c>   2</c></rc>
    <rc><c>O </c><c>   2</c></rc>
    <rc><c>O </c><c>   2</c></rc>
    <rc><c>O </c><c>   2</c></rc>
   </set>
  </array>
  <array name="atomtypes" >
   <dimension dim="1">type</dimension>
   <field type="int">atomspertype</field>
   <field type="string">element</field>
   <field>mass</field>
   <field>valence</field>
   <field type="string">pseudopotential</field>
   <set>
    <rc><c>   4</c><c>Mg</c><c>     24.30500000</c><c>      2.00000000</c><c>  PAW Mg 13Apr2007                      </c></rc>
    <rc><c>   4</c><c>O </c><c>     16.00000000</c><c>      6.00000000</c><c>  PAW O 22Mar2012                       </c></rc>
   </set>
  </array>
 </atominfo>
 <structure name="initialpos" >
  <crystal>
   <varray name="basis" >
    <v>       4.25648300       0.00000000       0.00000000 </v>
    <v>       0.00000000       4.25648300       0.00000000 </v>
    <v>       0.00000000       0.00000000       4.25648300 </v>
   </varray>
   <i name="volume">     77.11745871 </i>
   <varray name="rec_basis" >
    <v>       0.23493574       0.00000000       0.00000000 </v>
    <v>       0.00000000       0.23493574       0.00000000 </v>
    <v>       0.00000000       0.00000000       0.23493574 </v>
   </varray>
  </crystal>
  <varray name="positions" >
   <v>       0.50000000       0.50000000       0.00000000 </v>
   <v>       0.50000000       0.00000000       0.50000000 </v>
   <v>       0.00000000       0.00000000       0.00000000 </v>
   <v>       0.00000000       0.50000000       0.50000000 </v>
   <v>       0.00000000       0.50000000       0.00000000 </v>
   <v>       0.50000000       0.00000000       0.00000000 </v>
   <v>       0.50000000       0.50000000       0.50000000 </v>
   <v>       0.00000000       0.00000000       0.50000000 </v>
  </varray>
 </structure>
 <calculation>
  <scstep>
   <time name="dav">    1.35    1.41</time>
   <time name="total">    4.00    4.06</time>
   <energy>
    <i name="alphaZ">     72.98555028 </i>
    <i name="ewald">  -1417.81265781 </i>
    <i name="hartreedc">   -487.44881126 </i>
    <i name="XCdc">    -75.31899724 </i>
    <i name="pawpsdc">   1636.39399428 </i>
    <i name="pawaedc">  -1442.78526001 </i>
    <i name="eentropy">     -0.00000000 </i>
    <i name="bandstr">    -46.34477979 </i>
    <i name="atom">   1818.44944074 </i>
    <i name="e_fr_energy">     58.11847919 </i>
    <i name="e_wo_entrp">     58.11847919 </i>
    <i name="e_0_energy">     58.11847919 </i>
   </energy>
  </scstep>
  <scstep>
   <time name="dav">    2.32    2.32</time>
   <time name="total">    2.32    2.33</time>
   <energy>
    <i name="e_fr_energy">    -58.16146255 </i>
    <i name="e_wo_entrp">    -58.16146255 </i>
    <i name="e_0_energy">    -58.16146255 </i>
   </energy>
  </scstep>
  <scstep>
   <time name="dav">    0.96    0.96</time>
   <time name="total">    0.97    0.97</time>
   <energy>
    <i name="e_fr_energy">    -59.78046761 </i>
    <i name="e_wo_entrp">    -59.78046761 </i>
    <i name="e_0_energy">    -59.78046761 </i>
   </energy>
  </scstep>
  <scstep>
   <time name="dav">    1.07    1.07</time>
   <time name="total">    1.07    1.07</time>
   <energy>
    <i name="e_fr_energy">    -59.78407055 </i>
    <i name="e_wo_entrp">    -59.78407055 </i>
    <i name="e_0_energy">    -59.78407055 </i>
   </energy>
  </scstep>
  <scstep>
   <time name="dav">    1.34    1.34</time>
   <time name="total">    1.80    1.80</time>
   <energy>
    <i name="e_fr_energy">    -59.78407073 </i>
    <i name="e_wo_entrp">    -59.78407073 </i>
    <i name="e_0_energy">    -59.78407073 </i>
   </energy>
  </scstep>
  <scstep>
   <time name="diag">    0.83    0.88</time>
   <time name="diis">    0.23    0.23</time>
   <time name="orth">    0.02    0.02</time>
   <time name="total">    4.67    4.72</time>
   <energy>
    <i name="e_fr_energy">    -53.76967808 </i>
    <i name="e_wo_entrp">    -53.76967808 </i>
    <i name="e_0_energy">    -53.76967808 </i>
   </energy>
  </scstep>
  <scstep>
   <time name="diag">    0.56    0.56</time>
   <time name="diis">    0.22    0.23</time>
   <time name="orth">    0.02    0.02</time>
   <time name="total">    4.26    4.26</time>
   <energy>
    <i name="e_fr_energy">    -53.57417517 </i>
    <i name="e_wo_entrp">    -53.57417517 </i>
    <i name="e_0_energy">    -53.57417517 </i>
   </energy>
  </scstep>
  <scstep>
   <time name="diag">    0.56    0.56</time>
   <time name="diis">    0.29    0.29</time>
   <time name="orth">    0.02    0.02</time>
   <time name="total">    3.92    3.92</time>
   <energy>
    <i name="e_fr_energy">    -53.48271637 </i>
    <i name="e_wo_entrp">    -53.48271637 </i>
    <i name="e_0_energy">    -53.48271637 </i>
   </energy>
  </scstep>
  <scstep>
   <time name="diag">    0.77    0.77</time>
   <time name="diis">    0.29    0.29</time>
   <time name="orth">    0.02    0.02</time>
   <time name="total">    4.21    4.22</time>
   <energy>
    <i name="e_fr_energy">    -53.48137648 </i>
    <i name="e_wo_entrp">    -53.48137648 </i>
    <i name="e_0_energy">    -53.48137648 </i>
   </energy>
  </scstep>
  <scstep>
   <time name="diag">    0.77    0.77</time>
   <time name="diis">    0.22    0.22</time>
   <time name="orth">    0.02    0.02</time>
   <time name="total">    3.77    3.77</time>
   <energy>
    <i name="e_fr_energy">    -53.47568885 </i>
    <i name="e_wo_entrp">    -53.47568885 </i>
    <i name="e_0_energy">    -53.47568885 </i>
   </energy>
  </scstep>
  <scstep>
   <time name="diag">    0.14    0.14</time>
   <time name="diis">    0.21    0.21</time>
   <time name="orth">    0.02    0.02</time>
   <time name="total">    3.89    3.89</time>
   <energy>
    <i name="e_fr_energy">    -53.47561416 </i>
    <i name="e_wo_entrp">    -53.47561416 </i>
    <i name="e_0_energy">    -53.47561416 </i>
   </energy>
  </scstep>
  <scstep>
   <time name="diag">    0.59    0.59</time>
   <time name="diis">    0.21    0.22</time>
   <time name="orth">    0.02    0.02</time>
   <time name="total">    3.96    3.96</time>
   <energy>
    <i name="e_fr_energy">    -53.47561447 </i>
    <i name="e_wo_entrp">    -53.47561447 </i>
    <i name="e_0_energy">    -53.47561447 </i>
   </energy>
  </scstep>
  <scstep>
   <time name="diag">    0.35    0.35</time>
   <time name="diis">    0.21    0.21</time>
   <time name="orth">    0.02    0.02</time>
   <time name="total">    4.34    4.34</time>
   <energy>
    <i name="e_fr_energy">    -53.47561437 </i>
    <i name="e_wo_entrp">    -53.47561437 </i>
    <i name="e_0_energy">    -53.47561437 </i>
   </energy>
  </scstep>
  <scstep>
   <time name="diag">    0.35    0.35</time>
   <time name="diis">    0.17    0.18</time>
   <time name="orth">    0.02    0.02</time>
   <time name="total">    3.30    3.30</time>
   <energy>
    <i name="e_fr_energy">    -53.47561438 </i>
    <i name="e_wo_entrp">    -53.47561438 </i>
    <i name="e_0_energy">    -53.47561438 </i>
   </energy>
  </scstep>
  <scstep>
   <time name="diag">    0.80    0.80</time>
   <time name="diis">    0.18    0.18</time>
   <time name="orth">    0.02    0.02</time>
   <time name="total">    4.23    4.23</time>
   <energy>
    <i name="e_fr_energy">    -53.47561436 </i>
    <i name="e_wo_entrp">    -53.47561436 </i>
    <i name="e_0_energy">    -53.47561436 </i>
   </energy>
  </scstep>
  <scstep>
   <time name="diag">    0.37    0.37</time>
   <time name="diis">    0.14    0.14</time>
   <time name="orth">    0.02    0.02</time>
   <time name="total">    3.01    3.01</time>
   <energy>
    <i name="alphaZ">     72.98555028 </i>
    <i name="ewald">  -1417.81265781 </i>
    <i name="hartreedc">   -563.84480477 </i>
    <i name="XCdc">    -69.15376175 </i>
    <i name="pawpsdc">   2141.12919262 </i>
    <i name="pawaedc">  -1948.75913244 </i>
    <i name="eentropy">     -0.00000000 </i>
    <i name="bandstr">    -86.46944124 </i>
    <i name="atom">   1818.44944074 </i>
    <i name="e_fr_energy">    -53.47561436 </i>
    <i name="e_wo_entrp">    -53.47561436 </i>
    <i name="e_0_energy">    -53.47561436 </i>
   </energy>
  </scstep>
  <structure>
   <crystal>
    <varray name="basis" >
     <v>       4.25648300       0.00000000       0.00000000 </v>
     <v>       0.00000000       4.25648300       0.00000000 </v>
     <v>       0.00000000       0.00000000       4.25648300 </v>
    </varray>
    <i name="volume">     77.11745871 </i>
    <varray name="rec_basis" >
     <v>       0.23493574       0.00000000       0.00000000 </v>
     <v>       0.00000000       0.23493574       0.00000000 </v>
     <v>       0.00000000       0.00000000       0.23493574 </v>
    </varray>
   </crystal>
   <varray name="positions" >
    <v>       0.50000000       0.50000000       0.00000000 </v>
    <v>       0.50000000       0.00000000       0.50000000 </v>
    <v>       0.00000000       0.00000000       0.00000000 </v>
    <v>       0.00000000       0.50000000       0.50000000 </v>
    <v>       0.00000000       0.50000000       0.00000000 </v>
    <v>       0.50000000       0.00000000       0.00000000 </v>
    <v>       0.50000000       0.50000000       0.50000000 </v>
    <v>       0.00000000       0.00000000       0.50000000 </v>
   </varray>
  </structure>
  <varray name="forces" >
   <v>       0.00000000      -0.00000000      -0.00000000 </v>
   <v>      -0.00000000       0.00000000      -0.00000000 </v>
   <v>      -0.00000000      -0.00000000       0.00000000 </v>
   <v>      -0.00000000       0.00000000      -0.00000000 </v>
   <v>       0.00000000      -0.00000000       0.00000000 </v>
   <v>      -0.00000000      -0.00000000      -0.00000000 </v>
   <v>       0.00000000       0.00000000       0.00000000 </v>
   <v>       0.00000000      -0.00000000      -0.00000000 </v>
  </varray>
  <varray name="stress" >
   <v>    -120.72904374      -0.00000000       0.00000000 </v>
   <v>      -0.00000000    -120.72904374      -0.00000000 </v>
   <v>       0.00000000      -0.00000000    -120.72904374 </v>
  </varray>
  <energy>
   <i name="e_fr_energy">    -53.47561436 </i>
   <i name="e_wo_entrp">    -53.47561436 </i>
   <i name="e_0_energy">     -0.00000000 </i>
  </energy>
  <time name="totalsc">   84.42   84.92</time>
  <eigenvalues>
   <array>
    <dimension dim="1">band</dimension>
    <dimension dim="2">kpoint</dimension>
    <dimension dim="3">spin</dimension>
    <field>eigene</field>
    <field>occ</field>
    <set>
     <set comment="spin 1">
      <set comment="kpoint 1">
       <r>  -14.1781    1.0000 </r>
       <r>  -12.6421    1.0000 </r>
       <r>  -12.6421    1.0000 </r>
       <r>  -12.6421    1.0000 </r>
       <r>   -1.3659    1.0000 </r>
       <r>   -1.3659    1.0000 </r>
       <r>   -1.3659    1.0000 </r>
       <r>    1.3337    1.0000 </r>
       <r>    1.3337    1.0000 </r>
       <r>    1.3337    1.0000 </r>
       <r>    1.3337    1.0000 </r>
       <r>    1.3337    1.0000 </r>
       <r>    1.3337    1.0000 </r>
       <r>    2.6653    1.0000 </r>
       <r>    2.6653    1.0000 </r>
       <r>    2.6653    1.0000 </r>
       <r>    7.0086    0.0000 </r>
       <r>   11.5059    0.0000 </r>
       <r>   11.5059    0.0000 </r>
       <r>   11.5059    0.0000 </r>
       <r>   12.0138    0.0000 </r>
       <r>   12.0138    0.0000 </r>
       <r>   12.0138    0.0000 </r>
       <r>   15.2279    0.0000 </r>
      </set>
      <set comment="kpoint 2">
       <r>  -13.4334    1.0000 </r>
       <r>  -13.4334    1.0000 </r>
       <r>  -12.5911    1.0000 </r>
       <r>  -12.5911    1.0000 </r>
       <r>   -0.2525    1.0000 </r>
       <r>   -0.2525    1.0000 </r>
       <r>   -0.2525    1.0000 </r>
       <r>   -0.2525    1.0000 </r>
       <r>    0.0568    1.0000 </r>
       <r>    0.0568    1.0000 </r>
       <r>    0.9101    1.0000 </r>
       <r>    0.9101    1.0000 </r>
       <r>    1.9380    1.0000 </r>
       <r>    1.9380    1.0000 </r>
       <r>    1.9380    1.0000 </r>
       <r>    1.9380    1.0000 </r>
       <r>   10.2936    0.0000 </r>
       <r>   10.2936    0.0000 </r>
       <r>   13.5039    0.0000 </r>
       <r>   13.5044    0.0000 </r>
       <r>   13.8954    0.0000 </r>
       <r>   13.8954    0.0000 </r>
       <r>   13.8954    0.0000 </r>
       <r>   13.8954    0.0000 </r>
      </set>
      <set comment="kpoint 3">
       <r>  -12.9752    1.0000 </r>
       <r>  -12.9752    1.0000 </r>
       <r>  -12.9752    1.0000 </r>
       <r>  -12.9752    1.0000 </r>
       <r>   -0.7996    1.0000 </r>
       <r>   -0.7996    1.0000 </r>
       <r>   -0.7996    1.0000 </r>
       <r>   -0.7996    1.0000 </r>
       <r>    0.6928    1.0000 </r>
       <r>    0.6928    1.0000 </r>
       <r>    0.6928    1.0000 </r>
       <r>    0.6928    1.0000 </r>
       <r>    2.0328    1.0000 </r>
       <r>    2.0328    1.0000 </r>
       <r>    2.0328    1.0000 </r>
       <r>    2.0328    1.0000 </r>
       <r>   11.7030    0.0000 </r>
       <r>   11.7030    0.0000 </r>
       <r>   11.7030    0.0000 </r>
       <r>   11.7030    0.0000 </r>
       <r>   14.0449    0.0000 </r>
       <r>   14.0449    0.0000 </r>
       <r>   14.0449    0.0000 </r>
       <r>   14.0449    0.0000 </r>
      </set>
      <set comment="kpoint 4">
       <r>  -12.9032    1.0000 </r>
       <r>  -12.9032    1.0000 </r>
       <r>  -12.9032    1.0000 </r>
       <r>  -12.9032    1.0000 </r>
       <r>   -1.9048    1.0000 </r>
       <r>   -1.9048    1.0000 </r>
       <r>   -1.9048    1.0000 </r>
       <r>   -1.9048    1.0000 </r>
       <r>    2.0335    1.0000 </r>
       <r>    2.0335    1.0000 </r>
       <r>    2.0335    1.0000 </r>
       <r>    2.0335    1.0000 </r>
       <r>    2.0335    1.0000 </r>
       <r>    2.0335    1.0000 </r>
       <r>    2.0335    1.0000 </r>
       <r>    2.0335    1.0000 </r>
       <r>   10.1884    0.0000 </r>
       <r>   10.1884    0.0000 </r>
       <r>   10.1884    0.0000 </r>
       <r>   10.1884    0.0000 </r>
       <r>   14.7103    0.0000 </r>
       <r>   14.7103    0.0000 </r>
       <r>   14.7103    0.0000 </r>
       <r>   14.7103    0.0000 </r>
      </set>
     </set>
    </set>
   </array>
  </eigenvalues>
  <separator name="orbital magnetization" >
   <v name="MAGDIPOLOUT">      0.00000000      0.00000000      0.00000000</v>
  </separator>
  <dos>
   <i name="efermi">      2.81612699 </i>
   <total>
    <array>
     <dimension dim="1">gridpoints</dimension>
     <dimension dim="2">spin</dimension>
     <field>energy</field>
     <field>total</field>
     <field>integrated</field>
     <set>
      <set comment="spin 1">
       <r>   -15.6484     0.0000     0.0000 </r>
       <r>   -15.5406     0.0000     0.0000 </r>
       <r>   -15.4328     0.0000     0.0000 </r>
       <r>   -15.3250     0.0000     0.0000 </r>
       <r>   -15.2172     0.0000     0.0000 </r>
       <r>   -15.1093     0.0000     0.0000 </r>
       <r>   -15.0015     0.0000     0.0000 </r>
       <r>   -14.8937     0.0000     0.0000 </r>
       <r>   -14.7859     0.0000     0.0000 </r>
       <r>   -14.6780     0.0000     0.0000 </r>
       <r>   -14.5702     0.0000     0.0000 </r>
       <r>   -14.4624     0.0000     0.0000 </r>
       <r>   -14.3546     0.0000     0.0000 </r>
       <r>   -14.2468     0.0000     0.0000 </r>
       <r>   -14.1389     2.3122     0.2493 </r>
       <r>   -14.0311     0.0065     0.2500 </r>
       <r>   -13.9233     0.0000     0.2500 </r>
       <r>   -13.8155     0.0000     0.2500 </r>
       <r>   -13.7076     0.0000     0.2500 </r>
       <r>   -13.5998     0.0000     0.2500 </r>
       <r>   -13.4920     0.0002     0.2500 </r>
       <r>   -13.3842    13.9080     1.7496 </r>
       <r>   -13.2764     0.0035     1.7500 </r>
       <r>   -13.1685     0.0000     1.7500 </r>
       <r>   -13.0607     0.0000     1.7500 </r>
       <r>   -12.9529    26.2239     4.5775 </r>
       <r>   -12.8451    10.8740     5.7500 </r>
       <r>   -12.7372     0.0000     5.7500 </r>
       <r>   -12.6294     5.7182     6.3665 </r>
       <r>   -12.5216    15.1495     8.0000 </r>
       <r>   -12.4138     0.0000     8.0000 </r>
       <r>   -12.3060     0.0000     8.0000 </r>
       <r>   -12.1981     0.0000     8.0000 </r>
       <r>   -12.0903     0.0000     8.0000 </r>
       <r>   -11.9825     0.0000     8.0000 </r>
       <r>   -11.8747     0.0000     8.0000 </r>
       <r>   -11.7668     0.0000     8.0000 </r>
       <r>   -11.6590     0.0000     8.0000 </r>
       <r>   -11.5512     0.0000     8.0000 </r>
       <r>   -11.4434     0.0000     8.0000 </r>
       <r>   -11.3356     0.0000     8.0000 </r>
       <r>   -11.2277     0.0000     8.0000 </r>
       <r>   -11.1199     0.0000     8.0000 </r>
       <r>   -11.0121     0.0000     8.0000 </r>
       <r>   -10.9043     0.0000     8.0000 </r>
       <r>   -10.7964     0.0000     8.0000 </r>
       <r>   -10.6886     0.0000     8.0000 </r>
       <r>   -10.5808     0.0000     8.0000 </r>
       <r>   -10.4730     0.0000     8.0000 </r>
       <r>   -10.3652     0.0000     8.0000 </r>
       <r>   -10.2573     0.0000     8.0000 </r>
       <r>   -10.1495     0.0000     8.0000 </r>
       <r>   -10.0417     0.0000     8.0000 </r>
       <r>    -9.9339     0.0000     8.0000 </r>
       <r>    -9.8260     0.0000     8.0000 </r>
       <r>    -9.7182     0.0000     8.0000 </r>
       <r>    -9.6104     0.0000     8.0000 </r>
       <r>    -9.5026     0.0000     8.0000 </r>
       <r>    -9.3947     0.0000     8.0000 </r>
       <r>    -9.2869     0.0000     8.0000 </r>
       <r>    -9.1791     0.0000     8.0000 </r>
       <r>    -9.0713     0.0000     8.0000 </r>
       <r>    -8.9635     0.0000     8.0000 </r>
       <r>    -8.8556     0.0000     8.0000 </r>
       <r>    -8.7478     0.0000     8.0000 </r>
       <r>    -8.6400     0.0000     8.0000 </r>
       <r>    -8.5322     0.0000     8.0000 </r>
       <r>    -8.4243     0.0000     8.0000 </r>
       <r>    -8.3165     0.0000     8.0000 </r>
       <r>    -8.2087     0.0000     8.0000 </r>
       <r>    -8.1009     0.0000     8.0000 </r>
       <r>    -7.9931     0.0000     8.0000 </r>
       <r>    -7.8852     0.0000     8.0000 </r>
       <r>    -7.7774     0.0000     8.0000 </r>
       <r>    -7.6696     0.0000     8.0000 </r>
       <r>    -7.5618     0.0000     8.0000 </r>
       <r>    -7.4539     0.0000     8.0000 </r>
       <r>    -7.3461     0.0000     8.0000 </r>
       <r>    -7.2383     0.0000     8.0000 </r>
       <r>    -7.1305     0.0000     8.0000 </r>
       <r>    -7.0227     0.0000     8.0000 </r>
       <r>    -6.9148     0.0000     8.0000 </r>
       <r>    -6.8070     0.0000     8.0000 </r>
       <r>    -6.6992     0.0000     8.0000 </r>
       <r>    -6.5914     0.0000     8.0000 </r>
       <r>    -6.4835     0.0000     8.0000 </r>
       <r>    -6.3757     0.0000     8.0000 </r>
       <r>    -6.2679     0.0000     8.0000 </r>
       <r>    -6.1601     0.0000     8.0000 </r>
       <r>    -6.0523     0.0000     8.0000 </r>
       <r>    -5.9444     0.0000     8.0000 </r>
       <r>    -5.8366     0.0000     8.0000 </r>
       <r>    -5.7288     0.0000     8.0000 </r>
       <r>    -5.6210     0.0000     8.0000 </r>
       <r>    -5.5131     0.0000     8.0000 </r>
       <r>    -5.4053     0.0000     8.0000 </r>
       <r>    -5.2975     0.0000     8.0000 </r>
       <r>    -5.1897     0.0000     8.0000 </r>
       <r>    -5.0819     0.0000     8.0000 </r>
       <r>    -4.9740     0.0000     8.0000 </r>
       <r>    -4.8662     0.0000     8.0000 </r>
       <r>    -4.7584     0.0000     8.0000 </r>
       <r>    -4.6506     0.0000     8.0000 </r>
       <r>    -4.5427     0.0000     8.0000 </r>
       <r>    -4.4349     0.0000     8.0000 </r>
       <r>    -4.3271     0.0000     8.0000 </r>
       <r>    -4.2193     0.0000     8.0000 </r>
       <r>    -4.1115     0.0000     8.0000 </r>
       <r>    -4.0036     0.0000     8.0000 </r>
       <r>    -3.8958     0.0000     8.0000 </r>
       <r>    -3.7880     0.0000     8.0000 </r>
       <r>    -3.6802     0.0000     8.0000 </r>
       <r>    -3.5723     0.0000     8.0000 </r>
       <r>    -3.4645     0.0000     8.0000 </r>
       <r>    -3.3567     0.0000     8.0000 </r>
       <r>    -3.2489     0.0000     8.0000 </r>
       <r>    -3.1411     0.0000     8.0000 </r>
       <r>    -3.0332     0.0000     8.0000 </r>
       <r>    -2.9254     0.0000     8.0000 </r>
       <r>    -2.8176     0.0000     8.0000 </r>
       <r>    -2.7098     0.0000     8.0000 </r>
       <r>    -2.6019     0.0000     8.0000 </r>
       <r>    -2.4941     0.0000     8.0000 </r>
       <r>    -2.3863     0.0000     8.0000 </r>
       <r>    -2.2785     0.0000     8.0000 </r>
       <r>    -2.1707     0.0000     8.0000 </r>
       <r>    -2.0628     0.0000     8.0000 </r>
       <r>    -1.9550     0.0018     8.0002 </r>
       <r>    -1.8472     9.2725     9.0000 </r>
       <r>    -1.7394     0.0000     9.0000 </r>
       <r>    -1.6315     0.0000     9.0000 </r>
       <r>    -1.5237     0.0000     9.0000 </r>
       <r>    -1.4159     0.0014     9.0002 </r>
       <r>    -1.3081     6.9543     9.7500 </r>
       <r>    -1.2003     0.0000     9.7500 </r>
       <r>    -1.0924     0.0000     9.7500 </r>
       <r>    -0.9846     0.0000     9.7500 </r>
       <r>    -0.8768     0.0000     9.7500 </r>
       <r>    -0.7690    27.4002    12.7044 </r>
       <r>    -0.6611     0.4234    12.7500 </r>
       <r>    -0.5533     0.0000    12.7500 </r>
       <r>    -0.4455     0.0000    12.7500 </r>
       <r>    -0.3377     0.0000    12.7500 </r>
       <r>    -0.2299    26.3067    15.5865 </r>
       <r>    -0.1220     1.5168    15.7500 </r>
       <r>    -0.0142     0.0000    15.7500 </r>
       <r>     0.0936    13.8471    17.2430 </r>
       <r>     0.2014     0.0646    17.2500 </r>
       <r>     0.3093     0.0000    17.2500 </r>
       <r>     0.4171     0.0000    17.2500 </r>
       <r>     0.5249     0.0000    17.2500 </r>
       <r>     0.6327     0.0003    17.2500 </r>
       <r>     0.7405    27.8131    20.2489 </r>
       <r>     0.8484     0.0103    20.2500 </r>
       <r>     0.9562    13.9039    21.7492 </r>
       <r>     1.0640     0.0077    21.7500 </r>
       <r>     1.1718     0.0000    21.7500 </r>
       <r>     1.2797     0.0009    21.7501 </r>
       <r>     1.3875    13.9099    23.2499 </r>
       <r>     1.4953     0.0000    23.2500 </r>
       <r>     1.6031     0.0000    23.2500 </r>
       <r>     1.7109     0.0000    23.2500 </r>
       <r>     1.8188     0.0000    23.2500 </r>
       <r>     1.9266     5.8373    23.8794 </r>
       <r>     2.0344    46.9544    28.9421 </r>
       <r>     2.1422    21.4044    31.2500 </r>
       <r>     2.2501     0.0000    31.2500 </r>
       <r>     2.3579     0.0000    31.2500 </r>
       <r>     2.4657     0.0000    31.2500 </r>
       <r>     2.5735     0.0000    31.2500 </r>
       <r>     2.6813     6.0607    31.9035 </r>
       <r>     2.7892     0.8952    32.0000 </r>
       <r>     2.8970     0.0000    32.0000 </r>
       <r>     3.0048     0.0000    32.0000 </r>
       <r>     3.1126     0.0000    32.0000 </r>
       <r>     3.2205     0.0000    32.0000 </r>
       <r>     3.3283     0.0000    32.0000 </r>
       <r>     3.4361     0.0000    32.0000 </r>
       <r>     3.5439     0.0000    32.0000 </r>
       <r>     3.6517     0.0000    32.0000 </r>
       <r>     3.7596     0.0000    32.0000 </r>
       <r>     3.8674     0.0000    32.0000 </r>
       <r>     3.9752     0.0000    32.0000 </r>
       <r>     4.0830     0.0000    32.0000 </r>
       <r>     4.1909     0.0000    32.0000 </r>
       <r>     4.2987     0.0000    32.0000 </r>
       <r>     4.4065     0.0000    32.0000 </r>
       <r>     4.5143     0.0000    32.0000 </r>
       <r>     4.6222     0.0000    32.0000 </r>
       <r>     4.7300     0.0000    32.0000 </r>
       <r>     4.8378     0.0000    32.0000 </r>
       <r>     4.9456     0.0000    32.0000 </r>
       <r>     5.0534     0.0000    32.0000 </r>
       <r>     5.1613     0.0000    32.0000 </r>
       <r>     5.2691     0.0000    32.0000 </r>
       <r>     5.3769     0.0000    32.0000 </r>
       <r>     5.4847     0.0000    32.0000 </r>
       <r>     5.5926     0.0000    32.0000 </r>
       <r>     5.7004     0.0000    32.0000 </r>
       <r>     5.8082     0.0000    32.0000 </r>
       <r>     5.9160     0.0000    32.0000 </r>
       <r>     6.0238     0.0000    32.0000 </r>
       <r>     6.1317     0.0000    32.0000 </r>
       <r>     6.2395     0.0000    32.0000 </r>
       <r>     6.3473     0.0000    32.0000 </r>
       <r>     6.4551     0.0000    32.0000 </r>
       <r>     6.5630     0.0000    32.0000 </r>
       <r>     6.6708     0.0000    32.0000 </r>
       <r>     6.7786     0.0000    32.0000 </r>
       <r>     6.8864     0.0000    32.0000 </r>
       <r>     6.9942     0.3581    32.0386 </r>
       <r>     7.1021     1.9605    32.2500 </r>
       <r>     7.2099     0.0000    32.2500 </r>
       <r>     7.3177     0.0000    32.2500 </r>
       <r>     7.4255     0.0000    32.2500 </r>
       <r>     7.5334     0.0000    32.2500 </r>
       <r>     7.6412     0.0000    32.2500 </r>
       <r>     7.7490     0.0000    32.2500 </r>
       <r>     7.8568     0.0000    32.2500 </r>
       <r>     7.9646     0.0000    32.2500 </r>
       <r>     8.0725     0.0000    32.2500 </r>
       <r>     8.1803     0.0000    32.2500 </r>
       <r>     8.2881     0.0000    32.2500 </r>
       <r>     8.3959     0.0000    32.2500 </r>
       <r>     8.5038     0.0000    32.2500 </r>
       <r>     8.6116     0.0000    32.2500 </r>
       <r>     8.7194     0.0000    32.2500 </r>
       <r>     8.8272     0.0000    32.2500 </r>
       <r>     8.9350     0.0000    32.2500 </r>
       <r>     9.0429     0.0000    32.2500 </r>
       <r>     9.1507     0.0000    32.2500 </r>
       <r>     9.2585     0.0000    32.2500 </r>
       <r>     9.3663     0.0000    32.2500 </r>
       <r>     9.4742     0.0000    32.2500 </r>
       <r>     9.5820     0.0000    32.2500 </r>
       <r>     9.6898     0.0000    32.2500 </r>
       <r>     9.7976     0.0000    32.2500 </r>
       <r>     9.9054     0.0000    32.2500 </r>
       <r>    10.0133     0.0000    32.2500 </r>
       <r>    10.1211     0.0000    32.2500 </r>
       <r>    10.2289     9.2551    33.2479 </r>
       <r>    10.3367    13.9153    34.7483 </r>
       <r>    10.4446     0.0158    34.7500 </r>
       <r>    10.5524     0.0000    34.7500 </r>
       <r>    10.6602     0.0000    34.7500 </r>
       <r>    10.7680     0.0000    34.7500 </r>
       <r>    10.8758     0.0000    34.7500 </r>
       <r>    10.9837     0.0000    34.7500 </r>
       <r>    11.0915     0.0000    34.7500 </r>
       <r>    11.1993     0.0000    34.7500 </r>
       <r>    11.3071     0.0000    34.7500 </r>
       <r>    11.4150     0.0000    34.7500 </r>
       <r>    11.5228     6.1430    35.4123 </r>
       <r>    11.6306     0.8129    35.5000 </r>
       <r>    11.7384    27.6548    38.4818 </r>
       <r>    11.8462     0.1688    38.5000 </r>
       <r>    11.9541     0.0001    38.5000 </r>
       <r>    12.0619     6.9535    39.2497 </r>
       <r>    12.1697     0.0023    39.2500 </r>
       <r>    12.2775     0.0000    39.2500 </r>
       <r>    12.3854     0.0000    39.2500 </r>
       <r>    12.4932     0.0000    39.2500 </r>
       <r>    12.6010     0.0000    39.2500 </r>
       <r>    12.7088     0.0000    39.2500 </r>
       <r>    12.8166     0.0000    39.2500 </r>
       <r>    12.9245     0.0000    39.2500 </r>
       <r>    13.0323     0.0000    39.2500 </r>
       <r>    13.1401     0.0000    39.2500 </r>
       <r>    13.2479     0.0000    39.2500 </r>
       <r>    13.3558     0.0000    39.2500 </r>
       <r>    13.4636     0.0288    39.2531 </r>
       <r>    13.5714    13.8830    40.7500 </r>
       <r>    13.6792     0.0000    40.7500 </r>
       <r>    13.7870     0.0000    40.7500 </r>
       <r>    13.8949    13.4750    42.2029 </r>
       <r>    14.0027    14.3878    43.7542 </r>
       <r>    14.1105    27.7843    46.7500 </r>
       <r>    14.2183     0.0000    46.7500 </r>
       <r>    14.3262     0.0000    46.7500 </r>
       <r>    14.4340     0.0000    46.7500 </r>
       <r>    14.5418     0.0000    46.7500 </r>
       <r>    14.6496     0.0001    46.7500 </r>
       <r>    14.7574     9.2705    47.7496 </r>
       <r>    14.8653     0.0039    47.7500 </r>
       <r>    14.9731     0.0000    47.7500 </r>
       <r>    15.0809     0.0000    47.7500 </r>
       <r>    15.1887     0.0065    47.7507 </r>
       <r>    15.2966     2.3122    48.0000 </r>
       <r>    15.4044     0.0000    48.0000 </r>
       <r>    15.5122     0.0000    48.0000 </r>
       <r>    15.6200     0.0000    48.0000 </r>
       <r>    15.7278     0.0000    48.0000 </r>
       <r>    15.8357     0.0000    48.0000 </r>
       <r>    15.9435     0.0000    48.0000 </r>
       <r>    16.0513     0.0000    48.0000 </r>
       <r>    16.1591     0.0000    48.0000 </r>
       <r>    16.2670     0.0000    48.0000 </r>
       <r>    16.3748     0.0000    48.0000 </r>
       <r>    16.4826     0.0000    48.0000 </r>
       <r>    16.5904     0.0000    48.0000 </r>
       <r>    16.6982     0.0000    48.0000 </r>
      </set>
     </set>
    </array>
   </total>
  </dos>
 </calculation>
 <structure name="finalpos" >
  <crystal>
   <varray name="basis" >
    <v>       4.25648300       0.00000000       0.00000000 </v>
    <v>       0.00000000       4.25648300       0.00000000 </v>
    <v>       0.00000000       0.00000000       4.25648300 </v>
   </varray>
   <i name="volume">     77.11745871 </i>
   <varray name="rec_basis" >
    <v>       0.23493574       0.00000000       0.00000000 </v>
    <v>       0.00000000       0.23493574       0.00000000 </v>
    <v>       0.00000000       0.00000000       0.23493574 </v>
   </varray>
  </crystal>
  <varray name="positions" >
   <v>       0.50000000       0.50000000       0.00000000 </v>
   <v>       0.50000000       0.00000000       0.50000000 </v>
   <v>       0.00000000       0.00000000       0.00000000 </v>
   <v>       0.00000000       0.50000000       0.50000000 </v>
   <v>       0.00000000       0.50000000       0.00000000 </v>
   <v>       0.50000000       0.00000000       0.00000000 </v>
   <v>       0.50000000       0.50000000       0.50000000 </v>
   <v>       0.00000000       0.00000000       0.50000000 </v>
  </varray>
 </structure>
</modeling>
