Si                                      
           1
     4.256483    0.000000    0.000000
     0.000000    4.256483    0.000000
     0.000000    0.000000    4.256483
   Mg   O 
   4   4
Direct configuration=     1
   0.50000000  0.50000000  0.00000000
   0.50000000  0.00000000  0.50000000
   0.00000000  0.00000000  0.00000000
   0.00000000  0.50000000  0.50000000
   0.00000000  0.50000000  0.00000000
   0.50000000  0.00000000  0.00000000
   0.50000000  0.50000000  0.50000000
   0.00000000  0.00000000  0.50000000
