# ['Mg', 'O']

8 atoms
2 atom types

    0.0000     4.4944 xlo xhi
    0.0000     4.4944 ylo yhi
    0.0000     4.4944 zlo zhi

    0.0000     0.0000     0.0000 xy xz yz

Atoms

1 1     1.0000     2.2472     2.2472     0.0000
2 1     1.0000     2.2472     0.0000     2.2472
3 1     1.0000     0.0000     0.0000     0.0000
4 1     1.0000     0.0000     2.2472     2.2472
5 2     1.0000     0.0000     2.2472     0.0000
6 2     1.0000     2.2472     0.0000     0.0000
7 2     1.0000     2.2472     2.2472     2.2472
8 2     1.0000     0.0000     0.0000     2.2472
